default_name
 31046
  83.4330000  65.8000000 106.1030000  82.5400000  66.0390000 107.0520000
  82.9730000  66.2760000 108.5020000  84.2970000  66.1420000 108.8060000
  85.3260000  65.7590000 107.6990000  84.9180000  65.5990000 106.4090000
  82.7110000  65.8030000 104.7660000  81.4140000  66.0940000 105.0310000
  82.2580000  66.5330000 109.2560000  84.6310000  66.2970000 109.8110000
  86.3570000  65.6250000 107.9530000  85.6140000  65.3480000 105.6350000
  81.1650000  66.0330000 106.4980000  80.6980000  65.1820000 106.7340000
  83.1450000  65.6290000 103.8030000  80.3550000  66.4460000 103.9690000
  80.8290000  66.9220000 103.1380000  79.8700000  65.5500000 103.6400000
  79.6300000  67.1080000 104.3950000  80.3370000  62.3520000 105.9630000
  79.1040000  62.7820000 105.7410000  78.2170000  63.2660000 106.8920000
  78.7010000  63.1570000 108.1630000  80.1150000  62.5540000 108.4210000
  80.9000000  62.1730000 107.3730000  81.0080000  62.1310000 104.6170000
  80.1060000  62.4980000 103.6740000  77.2450000  63.6730000 106.7050000
  78.1040000  63.4830000 108.9900000  80.4730000  62.4420000 109.4230000
  81.8780000  61.7680000 107.5320000  78.7710000  62.7100000 104.2980000
  78.1760000  61.9270000 104.1160000  82.0030000  61.7750000 104.4480000
  80.4200000  62.6780000 102.1770000  81.4380000  62.9840000 102.0610000
  80.2650000  61.7510000 101.6660000  79.7730000  63.4250000 101.7650000
  73.9920000  35.2470000 104.8730000  74.7940000  34.4320000 104.2050000
  74.9040000  34.5080000 102.6790000  74.0840000  35.3760000 102.0200000
  73.0700000  36.2590000 102.8090000  73.0260000  36.2030000 104.1710000
  74.2530000  35.0530000 106.3580000  75.2500000  34.1400000 106.4550000
  75.5990000  33.8930000 102.1460000  74.1340000  35.4500000 100.9530000
  72.4090000  36.9140000 102.2810000  72.3440000  36.8110000 104.7280000
  75.5010000  33.5120000 105.1280000  75.0910000  32.6010000 105.0940000
  73.7610000  35.5530000 107.1660000  76.0170000  33.8070000 107.7490000
  76.0500000  34.6720000 108.3760000  75.5200000  33.0110000 108.2630000
  77.0140000  33.5040000 107.5040000  64.0150000  78.1580000 112.4580000
  63.8220000  77.9060000 113.7440000  63.8340000  76.4710000 114.2790000
  63.9590000  75.4530000 113.3790000  64.0830000  75.7570000 111.8550000
  64.1140000  77.0450000 111.4120000  64.1360000  79.6630000 112.2860000
  64.0440000  80.1990000 113.5260000  63.7420000  76.2730000 115.3270000
  63.9660000  74.4380000 113.7210000  64.1480000  74.9500000 111.1540000
  64.2120000  77.2710000 110.3710000  63.6080000  79.1620000 114.5020000
  62.6380000  79.2770000 114.7180000  64.2850000  80.1920000 111.3670000
  64.3540000  81.6670000 113.8770000  65.0990000  82.0430000 113.2090000
  63.4620000  82.2510000 113.7850000  64.7140000  81.7240000 114.8830000
  86.4220000  85.0890000 101.2010000  87.5820000  84.7460000 100.6610000
  88.0940000  83.3050000 100.7360000  87.3640000  82.4020000 101.4540000
  86.0510000  82.8410000 102.1720000  85.5970000  84.1200000 102.0500000
  86.1170000  86.5200000 100.7930000  87.1300000  86.9120000  99.9830000
  88.9990000  83.0150000 100.2450000  87.6970000  81.3880000 101.5290000
  85.5030000  82.1340000 102.7590000  84.6920000  84.4340000 102.5270000
  88.2370000  85.9170000 100.0290000  88.9810000  86.2530000 100.6060000
  85.2600000  87.0970000 101.0730000  87.1330000  88.1970000  99.1340000
  86.1300000  88.4430000  98.8570000  87.5540000  89.0000000  99.7030000
  87.7190000  88.0400000  98.2520000  71.2440000  72.3750000 101.2190000
  70.0380000  71.9560000 100.8680000  69.7390000  70.4640000 100.6960000
  70.7750000  69.5840000 100.8240000  72.2130000  70.0980000 101.1370000
  72.4400000  71.4280000 101.3300000  71.1630000  73.8690000 101.4910000
  69.8660000  74.2200000 101.3160000  68.7490000  70.1220000 100.4760000
  70.5990000  68.5350000 100.7060000  73.0250000  69.4030000 101.2040000
  73.4190000  71.7950000 101.5570000  69.1130000  73.1000000 100.6870000
  68.9700000  73.2820000  99.7150000  71.9680000  74.5110000 101.7830000
  69.2600000  75.5780000 101.7160000  69.7890000  75.9710000 102.5580000
  69.3390000  76.2600000 100.8950000  68.2290000  75.4470000 101.9710000
  56.1860000  43.2520000 101.0600000  56.2030000  41.9350000 101.2040000
  54.9080000  41.1490000 101.4310000  53.7470000  41.8530000 101.5730000
  53.7550000  43.4110000 101.5040000  54.9160000  44.0810000 101.2550000
  57.5840000  43.6990000 100.6630000  58.3310000  42.5740000 100.5580000
  54.9140000  40.0800000 101.4830000  52.8260000  41.3340000 101.7370000
  52.8450000  43.9560000 101.6470000  54.9370000  45.1490000 101.1930000
  57.5860000  41.4110000 101.1140000  57.9320000  41.1820000 102.0240000
  57.9070000  44.7030000 100.4810000  59.7420000  42.5070000  99.9440000
  59.8400000  43.2600000  99.1910000  60.4720000  42.6710000 100.7100000
  59.8960000  41.5430000  99.5070000  53.7320000  36.3150000 115.7410000
  54.7210000  37.1230000 115.3870000  55.4350000  37.9970000 116.4220000
  54.9640000  37.9890000 117.7030000  53.7330000  37.1120000 118.0860000
  53.1460000  36.3100000 117.1540000  53.3730000  35.4570000 114.5390000
  54.2310000  35.8030000 113.5500000  56.2760000  38.6000000 116.1480000
  55.4390000  38.5930000 118.4490000  53.3510000  37.1370000 119.0850000
  52.3080000  35.6920000 117.4030000  54.9830000  37.0310000 113.9310000
  54.6060000  37.8280000 113.4590000  52.6060000  34.7110000 114.4910000
  54.4090000  35.0340000 112.2280000  54.2020000  33.9980000 112.3880000
  53.7340000  35.4250000 111.4940000  55.4150000  35.1480000 111.8810000
  59.9870000  83.4640000 117.7510000  60.9250000  84.1970000 117.1710000
  60.5860000  85.5400000 116.5170000  59.2750000  85.9160000 116.4680000
  58.1670000  84.9960000 117.0640000  58.5030000  83.8280000 117.6800000
  60.6670000  82.3050000 118.4620000  61.9990000  82.4710000 118.2770000
  61.3540000  86.1610000 116.1050000  59.0050000  86.8480000 116.0140000
  57.1380000  85.2850000 116.9930000  57.7550000  83.1910000 118.1060000
  62.2470000  83.5320000 117.2620000  62.4910000  83.1210000 116.3840000
  60.1890000  81.5250000 119.0160000  63.0960000  81.6820000 119.0160000
  62.7430000  81.4040000 119.9860000  63.3390000  80.8010000 118.4570000
  63.9690000  82.2930000 119.1150000  36.2880000  50.2490000 117.0710000
  35.1180000  50.5100000 117.6340000  34.3670000  49.4370000 118.4280000
  34.8930000  48.1780000 118.4610000  36.2190000  47.8570000 117.7080000
  36.8900000  48.8430000 117.0470000  36.8540000  51.5530000 116.5330000
  35.9670000  52.5220000 116.8680000  33.4540000  49.6670000 118.9370000
  34.3890000  47.4050000 119.0040000  36.6070000  46.8590000 117.7130000
  37.8080000  48.6410000 116.5350000  34.7070000  51.9100000 117.3740000
  34.0000000  51.9400000 116.6680000  37.7790000  51.6830000 116.0120000
  36.2290000  54.0350000 116.7490000  37.2720000  54.2280000 116.8780000
  35.9190000  54.3750000 115.7820000  35.6740000  54.5530000 117.5030000
  46.5720000  37.1830000 117.3680000  47.6640000  36.4770000 117.6230000
  49.0570000  37.0600000 117.3700000  49.1410000  38.2910000 116.7880000
  47.8490000  39.0690000 116.3970000  46.6210000  38.5460000 116.6750000
  45.3760000  36.4090000 117.9000000  45.8720000  35.2920000 118.4860000
  49.9390000  36.5150000 117.6370000  50.1010000  38.7240000 116.5940000
  47.9250000  40.0200000 115.9110000  45.7240000  39.0720000 116.4240000
  47.3150000  35.1370000 118.1520000  47.4330000  34.4420000 117.4430000
  44.3480000  36.7010000 117.8420000  45.0620000  34.3290000 119.3730000
  44.2890000  34.8710000 119.8750000  44.6260000  33.5650000 118.7650000
  45.7110000  33.8810000 120.0970000  43.5040000  48.0040000 118.6700000
  44.7110000  48.4720000 118.3920000  44.9110000  49.9210000 117.9380000
  43.8010000  50.6890000 117.7380000  42.3780000  50.0960000 117.9700000
  42.2330000  48.8160000 118.4170000  43.6630000  46.6160000 119.2690000
  44.9960000  46.3810000 119.3410000  45.8920000  50.3180000 117.7760000
  43.9070000  51.7050000 117.4170000  41.5120000  50.6960000 117.7800000
  41.2630000  48.3980000 118.5930000  45.7420000  47.4250000 118.5840000
  46.0410000  47.0640000 117.7010000  42.8790000  45.9630000 119.5890000
  45.6440000  45.2090000 120.1010000  45.0300000  44.9420000 120.9350000
  45.7420000  44.3690000 119.4450000  46.6120000  45.5020000 120.4510000
  56.4300000  66.2140000 115.8760000  56.0180000  66.0160000 117.1190000
  56.9860000  65.5390000 118.2050000  58.2640000  65.2350000 117.8370000
  58.7110000  65.3740000 116.3500000  57.8400000  65.8440000 115.4120000
  55.2940000  66.8610000 115.1000000  54.2810000  67.0400000 115.9830000
  56.6680000  65.4410000 119.2230000  58.9640000  64.8950000 118.5720000
  59.7070000  65.1030000 116.0640000  58.1350000  65.9570000 114.3900000
  54.5720000  66.3150000 117.2500000  54.0440000  65.4670000 117.2920000
  55.3010000  67.1390000 114.0670000  53.0180000  67.8800000 115.7150000
  53.2530000  68.6710000 115.0360000  52.2590000  67.2560000 115.2890000
  52.6630000  68.2930000 116.6360000  51.7090000  42.0180000 111.2950000
  52.3850000  42.5290000 110.2770000  51.6840000  43.3690000 109.2050000
  50.3280000  43.5010000 109.2800000  49.5290000  42.8090000 110.4260000
  50.1850000  42.1050000 111.3910000  52.7080000  41.4130000 112.2670000
  53.9380000  41.6560000 111.7540000  52.2410000  43.8350000 108.4190000
  49.8080000  44.0780000 108.5430000  48.4620000  42.8910000 110.4580000
  49.6530000  41.6340000 112.1920000  53.8200000  42.1650000 110.3590000
  54.0330000  41.4380000 109.7070000  52.4840000  40.9110000 113.1850000
  55.2650000  41.4450000 112.5070000  55.1070000  41.5920000 113.5540000
  55.6190000  40.4500000 112.3340000  55.9910000  42.1480000 112.1530000
  42.4350000  60.5410000 118.6500000  42.1070000  59.3290000 119.0740000
  40.6590000  58.8350000 119.0110000  39.7000000  59.7120000 118.5920000
  40.0830000  61.1690000 118.1930000  41.3870000  61.5670000 118.2160000
  43.9510000  60.6510000 118.6660000  44.4190000  59.4450000 119.0690000
  40.4050000  57.8340000 119.2930000  38.6780000  59.3980000 118.5410000
  39.3210000  61.8590000 117.8960000  41.6680000  62.5600000 117.9330000
  43.2990000  58.6050000 119.5770000  43.3020000  58.5930000 120.5770000
  44.5330000  61.5060000 118.3920000  45.8930000  59.0050000 119.0030000
  46.3750000  59.4950000 118.1840000  46.3850000  59.2680000 119.9170000
  45.9430000  57.9450000 118.8650000  76.1420000  66.2210000 116.5380000
  77.0130000  67.1990000 116.7430000  76.7200000  68.3210000 117.7430000
  75.4980000  68.3350000 118.3500000  74.4410000  67.2360000 118.0240000
  74.7470000  66.2240000 117.1640000  76.8030000  65.1810000 115.6480000
  78.0660000  65.6160000 115.4230000  77.4500000  69.0740000 117.9550000
  75.2610000  69.1090000 119.0510000  73.4740000  67.2740000 118.4810000
  74.0370000  65.4550000 116.9390000  78.2160000  67.0200000 115.8960000
  78.1930000  67.6510000 115.1200000  76.3630000  64.2740000 115.2890000
  79.1850000  64.7770000 114.7780000  79.0310000  63.7430000 115.0040000
  79.1700000  64.9170000 113.7170000  80.1330000  65.0900000 115.1640000
  40.9920000  79.4270000 104.3300000  40.5530000  78.4530000 105.1130000
  40.4650000  78.6380000 106.6300000  40.9380000  79.8010000 107.1630000
  41.5480000  80.9010000 106.2410000  41.5720000  80.7280000 104.8890000
  40.7770000  79.0040000 102.8860000  40.1700000  77.7940000 102.9270000
  40.0500000  77.8740000 107.2550000  40.8940000  79.9590000 108.2210000
  41.9450000  81.7970000 106.6710000  41.9760000  81.4780000 104.2420000
  40.1960000  77.2550000 104.3150000  40.9060000  76.5550000 104.4010000
  41.0360000  79.5630000 102.0100000  39.5380000  77.0830000 101.7160000
  39.1810000  77.8130000 101.0210000  40.2730000  76.4670000 101.2410000
  38.7220000  76.4750000 102.0460000  63.6050000  60.4910000 105.3410000
  64.3010000  59.7250000 104.5140000  65.1480000  60.3370000 103.3950000
  65.0940000  61.6890000 103.2160000  64.1910000  62.5710000 104.1310000
  63.4830000  62.0040000 105.1480000  63.0380000  59.6060000 106.4380000
  63.4910000  58.3530000 106.1920000  65.7600000  59.7220000 102.7680000
  65.6720000  62.1470000 102.4390000  64.1300000  63.6260000 103.9620000
  62.8680000  62.5960000 105.7920000  64.1200000  58.2910000 104.8440000
  63.4970000  57.8600000 104.1910000  62.4200000  59.9150000 107.2550000
  63.3780000  57.1670000 107.1690000  63.3950000  57.5310000 108.1740000
  62.4600000  56.6460000 106.9920000  64.2010000  56.5000000 107.0160000
  86.8120000  80.1220000 104.4100000  85.7400000  80.7670000 104.8440000
  84.3560000  80.4870000 104.2510000  84.2720000  79.6220000 103.1990000
  85.5560000  78.9460000 102.6290000  86.7690000  79.1790000 103.2070000
  87.9760000  80.4800000 105.3190000  87.4780000  81.3000000 106.2760000
  83.4810000  80.9610000 104.6460000  83.3200000  79.4090000 102.7590000
  85.4850000  78.2930000 101.7840000  87.6580000  78.7140000 102.8350000
  86.0980000  81.7270000 105.9160000  86.1070000  82.6610000 105.5580000
  88.9860000  80.1350000 105.2330000  88.2290000  81.7230000 107.5530000
  88.9030000  80.9460000 107.8440000  88.7790000  82.6210000 107.3620000
  87.5240000  81.8970000 108.3390000  45.1260000  76.4690000 102.6100000
  45.8740000  75.3750000 102.5770000  47.3700000  75.4320000 102.8980000
  47.9300000  76.6540000 103.1300000  47.0610000  77.9460000 103.0660000
  45.7220000  77.8610000 102.8220000  43.6750000  76.0520000 102.4370000
  43.6710000  74.7000000 102.3540000  47.9600000  74.5390000 102.9340000
  48.9750000  76.7270000 103.3540000  47.5150000  78.9030000 103.2180000
  45.1090000  78.7380000 102.7870000  45.0630000  74.1920000 102.2010000
  45.2360000  73.9400000 101.2490000  42.8220000  76.6990000 102.4070000
  42.4110000  73.8160000 102.4180000  41.6700000  74.2960000 103.0210000
  42.0280000  73.6700000 101.4290000  42.6620000  72.8680000 102.8470000
  36.5940000  63.0440000 101.5790000  36.4560000  64.3530000 101.4360000
  37.6620000  65.2910000 101.5450000  38.8670000  64.7490000 101.8850000
  38.9980000  63.2180000 102.1510000  37.9170000  62.4010000 102.0030000
  35.2690000  62.3890000 101.2270000  34.4350000  63.3890000 100.8510000
  37.5610000  66.3420000 101.3650000  39.7290000  65.3790000 101.9730000
  39.9400000  62.8070000 102.4480000  37.9920000  61.3470000 102.1700000
  35.0410000  64.7100000 101.1760000  34.6210000  65.0900000 102.0000000
  35.0450000  61.3430000 101.2520000  33.0650000  63.1870000 100.1770000
  33.0800000  62.2880000  99.6000000  32.3050000  63.1180000 100.9280000
  32.8570000  64.0190000  99.5360000  67.1900000  59.7340000 114.6290000
  66.7660000  60.9150000 114.2050000  67.7090000  62.1220000 114.1580000
  68.9710000  61.9680000 114.6530000  69.4260000  60.6000000 115.2450000
  68.5810000  59.5310000 115.2320000  66.0870000  58.7190000 114.3730000
  65.0830000  59.3900000 113.7600000  67.3840000  63.0590000 113.7550000
  69.6520000  62.7940000 114.6380000  70.4080000  60.4980000 115.6600000
  68.8820000  58.5820000 115.6230000  65.3360000  60.8570000 113.8190000
  64.7670000  61.2770000 114.5260000  66.1090000  57.6760000 114.6120000
  63.8620000  58.7310000 113.0910000  64.1360000  57.7660000 112.7200000
  63.0750000  58.6280000 113.8090000  63.5260000  59.3430000 112.2800000
  67.8330000  75.3460000 107.4820000  68.2630000  76.5820000 107.6900000
  69.7610000  76.8970000 107.7510000  70.6390000  75.8550000 107.6760000
  70.1180000  74.3930000 107.5340000  68.7810000  74.1460000 107.4370000
  66.3270000  75.3990000 107.2850000  65.9770000  76.7060000 107.3520000
  70.1080000  77.9040000 107.8540000  71.6920000  76.0420000 107.7200000
  70.8130000  73.5790000 107.5090000  68.4080000  73.1490000 107.3270000
  67.1250000  77.5190000 107.8410000  66.9950000  77.7560000 108.8040000
  65.6750000  74.5690000 107.1080000  64.5960000  77.2690000 106.9690000
  64.1620000  76.6600000 106.2050000  63.9600000  77.2700000 107.8300000
  64.7070000  78.2710000 106.6070000  40.7920000  60.4230000 115.0080000
  39.6760000  59.7470000 114.7770000  38.4330000  60.4440000 114.2160000
  38.4780000  61.7970000 114.0460000  39.7630000  62.5970000 114.4170000
  40.8700000  61.9450000 114.8730000  41.8800000  59.4260000 115.3720000
  41.3170000  58.1960000 115.2840000  37.5530000  59.8860000 113.9690000
  37.6240000  62.3140000 113.6590000  39.7780000  63.6620000 114.3110000
  41.7640000  62.4780000 115.1210000  39.8410000  58.3180000 115.1350000
  39.3880000  58.1230000 116.0040000  42.8950000  59.6500000 115.6260000
  42.0940000  56.8670000 115.3260000  43.0730000  57.0130000 114.9220000
  42.1720000  56.5310000 116.3390000  41.5740000  56.1320000 114.7460000
  70.9460000  64.2400000 106.7050000  72.1640000  64.7000000 106.4550000
  73.3770000  63.7650000 106.4610000  73.1820000  62.4640000 106.8220000
  71.7610000  61.9570000 107.2140000  70.6920000  62.8010000 107.1560000
  69.9560000  65.3610000 106.4350000  70.6810000  66.4160000 105.9920000
  74.3500000  64.1240000 106.1960000  74.0110000  61.7870000 106.8400000
  71.6230000  60.9430000 107.5260000  69.7070000  62.4660000 107.4100000
  72.1340000  66.1580000 106.1930000  72.4670000  66.6620000 106.9900000
  68.8930000  65.3170000 106.5520000  70.0890000  67.6910000 105.3640000
  69.1750000  67.4510000 104.8650000  69.8980000  68.4110000 106.1330000
  70.7850000  68.0980000 104.6600000  82.1910000  34.8290000 106.8310000
  81.3920000  33.9260000 106.2820000  80.0070000  34.3130000 105.7550000
  79.5830000  35.5950000 105.9490000  80.4910000  36.6240000 106.6890000
  81.7370000  36.2630000 107.1070000  83.5430000  34.1770000 107.0710000
  83.4500000  32.9130000 106.5910000  79.3890000  33.5970000 105.2530000
  78.6180000  35.8960000 105.5960000  80.1370000  37.6190000 106.8650000
  82.3780000  36.9600000 107.6060000  82.0310000  32.5880000 106.2760000
  81.6410000  32.0120000 106.9950000  84.4050000  34.6340000 107.5120000
  84.6400000  31.9560000 106.3940000  85.5220000  32.5220000 106.1800000
  84.7900000  31.3840000 107.2860000  84.4340000  31.2950000 105.5780000
  84.6760000  60.5830000 109.2210000  84.5550000  59.7200000 108.2240000
  83.2380000  58.9780000 107.9760000  82.2220000  59.1630000 108.8680000
  82.4100000  60.1030000 110.0960000  83.5780000  60.7850000 110.2660000
  86.0190000  61.2810000 109.0790000  86.5880000  60.7920000 107.9510000
  83.1210000  58.3300000 107.1320000  81.2900000  58.6550000 108.7250000
  81.6180000  60.2170000 110.8080000  83.7190000  61.4440000 111.0980000
  85.8220000  59.6130000 107.4600000  86.3000000  58.7680000 107.6960000
  86.4250000  62.0260000 109.7310000  87.8400000  61.3770000 107.2710000
  87.8870000  62.4290000 107.4550000  88.7150000  60.9050000 107.6670000
  87.7880000  61.2020000 106.2160000  46.8870000  59.8860000 101.9730000
  45.8800000  60.3930000 101.2780000  46.0540000  61.6740000 100.4560000
  47.2490000  62.3270000 100.5320000  48.3950000  61.7750000 101.4340000
  48.2270000  60.6090000 102.1190000  46.4530000  58.5320000 102.5110000
  45.1990000  58.3180000 102.0440000  45.2590000  62.0480000  99.8440000
  47.4010000  63.2270000  99.9720000  49.3180000  62.3110000 101.5120000
  49.0080000  60.2100000 102.7330000  44.6600000  59.5650000 101.4340000
  44.0170000  60.0070000 102.0600000  47.0320000  57.8700000 103.1220000
  44.4450000  56.9780000 102.1260000  45.1470000  56.1720000 102.1000000
  43.8880000  56.9380000 103.0390000  43.7740000  56.8950000 101.2960000
  84.3560000  38.1250000 101.2800000  85.0500000  39.1500000 101.7520000
  86.3750000  39.5700000 101.1090000  86.8660000  38.8030000 100.0930000
  86.0910000  37.5380000  99.6130000  84.8920000  37.2140000 100.1730000
  83.0190000  38.0890000 102.0020000  83.0080000  39.1520000 102.8410000
  86.9030000  40.4370000 101.4500000  87.7920000  39.0680000  99.6260000
  86.5000000  36.9250000  98.8360000  84.3410000  36.3570000  99.8470000
  84.3660000  39.7580000 102.9180000  84.8190000  39.4870000 103.7680000
  82.2340000  37.3760000 101.8600000  81.7690000  39.6640000 103.5990000
  80.8900000  39.4500000 103.0300000  81.7060000  39.1760000 104.5500000
  81.8520000  40.7210000 103.7460000  52.1610000  62.8960000 110.0180000
  52.8460000  63.9690000 109.6500000  52.1530000  65.3210000 109.4590000
  50.7950000  65.3700000 109.5890000  49.9880000  64.0790000 109.9230000
  50.6360000  62.8980000 110.1320000  53.1530000  61.7800000 110.3050000
  54.3870000  62.3070000 110.1190000  52.7160000  66.2010000 109.2240000
  50.2810000  66.2990000 109.4570000  48.9200000  64.1200000 109.9920000
  50.0970000  62.0060000 110.3740000  54.2810000  63.6440000 109.4710000
  54.5040000  63.5750000 108.4990000  52.9210000  60.7820000 110.6130000
  55.7070000  61.6260000 110.5270000  55.5380000  61.0020000 111.3790000
  56.0660000  61.0300000 109.7140000  56.4340000  62.3730000 110.7690000
  78.9490000  82.8980000  58.2120000  78.7340000  82.1490000  57.6120000
  79.9240000  82.9600000  58.3210000  78.5300000  82.7460000  59.0880000
  58.4030000  38.1890000  56.6670000  58.4050000  37.3450000  57.1710000
  58.2600000  38.9400000  57.2850000  57.6790000  38.1720000  56.0000000
  66.1570000  82.8330000  90.3340000  65.5820000  83.1500000  89.6020000
  67.0750000  83.1560000  90.1920000  66.1540000  81.8490000  90.3510000
  67.3480000  54.3940000  75.3760000  66.8850000  53.9900000  74.6090000
  68.3120000  54.4400000  75.1890000  67.1940000  53.8460000  76.1780000
  77.4590000  69.0640000  63.9690000  77.0350000  68.2250000  63.6820000
  78.4140000  68.9060000  64.1420000  77.0260000  69.3850000  64.7910000
  88.2880000  50.7820000  66.4520000  89.0000000  51.4060000  66.7170000
  87.5180000  50.8890000  67.0540000  88.6220000  49.8590000  66.5070000
  74.7870000  87.6520000  58.8160000  74.0700000  87.2290000  58.2940000
  74.7460000  88.6280000  58.6990000  75.6590000  87.3210000  58.5030000
  57.3940000  65.5320000  81.6240000  57.3790000  66.1060000  80.8270000
  58.2390000  65.0300000  81.6510000  56.6390000  64.9020000  81.5900000
  39.5110000  36.8010000  92.6340000  39.8120000  35.9780000  92.1870000
  38.6410000  37.0740000  92.2660000  40.1700000  37.5160000  92.4850000
  48.4370000  67.8750000  90.3950000  47.9930000  68.7030000  90.1060000
  48.1300000  67.1260000  89.8360000  48.2130000  67.6940000  91.3360000
  52.3560000  55.8310000  58.1450000  52.3820000  54.9840000  58.6440000
  53.1760000  56.3420000  58.3230000  51.5740000  56.3550000  58.4300000
  68.0210000  61.2290000  93.3130000  68.9630000  61.0080000  93.1420000
  67.6720000  60.6510000  94.0270000  67.4970000  61.0890000  92.4920000
  80.4400000  44.6310000  67.8540000  80.5250000  43.8870000  67.2180000
  80.2400000  45.4600000  67.3640000  81.2840000  44.7390000  68.3490000
  44.8980000  38.8880000  77.7270000  44.1170000  38.5530000  78.2210000
  45.6950000  38.8390000  78.3010000  44.7420000  39.8230000  77.4620000
  39.5390000  78.4900000  80.1570000  39.2240000  77.7250000  79.6270000
  40.2780000  78.2050000  80.7390000  38.8000000  78.8320000  80.7090000
  57.3810000  33.0690000  62.4300000  56.9340000  32.3230000  61.9730000
  57.0010000  33.1770000  63.3310000  57.2470000  33.8970000  61.9160000
  58.7000000  74.8220000  85.3480000  59.3220000  74.3400000  84.7590000
  59.1570000  75.5960000  85.7450000  58.3930000  74.2200000  86.0630000
  56.1440000  66.6810000  57.8470000  55.9760000  65.8180000  58.2870000
  57.0380000  66.6730000  57.4390000  56.0930000  67.4040000  58.5130000
  43.4330000  71.1370000  58.4700000  43.5790000  70.7820000  57.5650000
  42.5180000  71.4920000  58.5400000  44.0780000  71.8580000  58.6470000
  42.7240000  84.1800000  91.5490000  41.9860000  83.6870000  91.1250000
  43.5770000  83.7390000  91.3370000  42.5930000  84.1910000  92.5240000
  44.2590000  37.3920000  72.1920000  44.7050000  36.5190000  72.1310000
  44.9290000  38.1080000  72.1190000  43.7960000  37.4640000  73.0570000
  39.5190000  58.2790000  81.1570000  39.0890000  57.9990000  81.9950000
  39.5030000  57.5340000  80.5150000  40.4510000  58.5370000  81.3370000
  89.0000000  52.9380000  95.5810000  88.7570000  51.9860000  95.5730000
  88.9430000  53.2830000  96.5000000  88.3810000  53.4390000  95.0040000
  86.6820000  67.4170000  66.1950000  86.7770000  66.5270000  65.7900000
  87.5720000  67.8180000  66.3160000  86.2370000  67.3360000  67.0680000
  62.9970000  35.3890000  74.0690000  62.3910000  36.1500000  74.2150000
  62.4880000  34.5500000  74.1230000  63.6990000  35.3930000  74.7580000
  67.8670000  57.8350000  75.0150000  67.0350000  58.0290000  75.5000000
  68.2460000  58.6720000  74.6660000  67.6760000  57.2250000  74.2670000
  31.6820000  61.2680000  91.6390000  31.3070000  60.5230000  91.1190000
  31.0000000  61.6130000  92.2570000  31.9640000  61.9850000  91.0280000
  48.9070000  45.4750000  59.0250000  48.7630000  46.4470000  59.0540000
  48.0390000  45.0170000  58.9680000  49.3760000  45.1890000  59.8410000
  81.0740000  55.7760000  86.8770000  81.1530000  56.5280000  86.2500000
  81.9670000  55.4110000  87.0660000  80.5110000  55.0740000  86.4780000
  74.1230000  77.2320000  92.6900000  73.5650000  76.6040000  93.2010000
  73.5530000  77.7700000  92.0970000  74.7740000  76.7280000  92.1510000
  75.8180000  82.0530000  94.4020000  76.2440000  81.9710000  93.5200000
  74.9110000  82.4170000  94.2960000  76.3500000  82.6580000  94.9670000
  36.4410000  37.7350000  61.2380000  36.7190000  38.1350000  62.0920000
  35.4600000  37.6970000  61.1980000  36.8080000  36.8250000  61.1680000
  39.6170000  63.0450000  90.2160000  40.4010000  63.5740000  89.9500000
  38.8310000  63.6330000  90.2810000  39.7850000  62.6260000  91.0900000
  82.1990000  50.6880000  81.8960000  82.4800000  49.7460000  81.8800000
  81.2180000  50.7370000  81.9490000  82.5050000  51.1360000  81.0750000
  78.2300000  48.7560000  73.9000000  78.3280000  47.8360000  73.5680000
  79.0390000  49.2710000  73.6830000  78.1040000  48.7400000  74.8760000
  67.4500000  58.4500000  88.8840000  68.2560000  58.8670000  88.5050000
  66.8240000  59.1500000  89.1740000  67.7010000  57.8950000  89.6570000
  62.1320000  69.7460000  77.6370000  63.0360000  69.7330000  77.2520000
  62.1800000  69.5310000  78.5960000  61.5710000  69.0800000  77.1800000
  50.5720000  84.7870000  64.2670000  50.7540000  84.8240000  63.3020000
  50.0040000  84.0100000  64.4640000  50.1100000  85.6100000  64.5450000
  50.1270000  33.7220000  78.0270000  50.3880000  34.6700000  78.0400000
  49.4090000  33.5890000  77.3690000  49.8090000  33.4570000  78.9190000
  47.0970000  51.3590000  69.9920000  47.7900000  51.0840000  69.3520000
  47.2350000  50.8900000  70.8460000  46.2090000  51.1320000  69.6330000
  43.4490000  76.0040000  68.3790000  44.3960000  76.1660000  68.1750000
  43.3760000  75.2950000  69.0570000  42.9800000  75.7240000  67.5600000
  43.3700000  61.1500000  71.4510000  43.8480000  62.0010000  71.5630000
  42.9480000  61.1240000  70.5630000  42.6780000  61.0680000  72.1450000
  63.5880000  50.1540000  74.4180000  62.6730000  50.1110000  74.0620000
  63.5690000  50.5280000  75.3270000  64.1380000  50.7280000  73.8390000
  42.7070000  77.8760000  65.0490000  42.3250000  78.6570000  64.5890000
  43.6180000  78.0890000  65.3540000  42.7390000  77.1130000  64.4290000
  67.3640000  88.5170000  81.6950000  67.5580000  87.5580000  81.5940000
  68.1970000  89.0000000  81.8930000  66.7270000  88.6460000  82.4330000
  63.2570000  58.6590000  68.9360000  63.8900000  59.3090000  68.5580000
  63.1960000  57.8770000  68.3430000  62.3700000  59.0760000  69.0200000
  82.2160000  72.4860000  66.2730000  82.2900000  72.7380000  67.2200000
  82.7360000  73.1150000  65.7240000  81.2720000  72.5150000  65.9990000
  78.3210000  33.8320000  84.3470000  78.6690000  34.2940000  85.1410000
  78.6850000  34.2520000  83.5360000  77.3390000  33.8930000  84.3360000
  83.9100000  85.9620000  94.6720000  84.0440000  84.9910000  94.5970000
  83.0350000  86.2030000  94.2940000  84.6210000  86.4300000  94.1790000
  67.3890000  85.3530000  79.2250000  67.2170000  85.5260000  80.1770000
  67.9350000  86.0800000  78.8520000  66.5330000  85.3050000  78.7420000
  56.9790000  45.2940000  91.7220000  57.5280000  44.4860000  91.8300000
  56.9870000  45.8100000  92.5590000  56.0550000  45.0350000  91.5040000
  78.0650000  48.7360000  66.8600000  78.9560000  48.5940000  67.2490000
  78.0290000  49.6220000  66.4360000  77.3850000  48.6830000  67.5690000
  63.2200000  82.7050000  65.9910000  63.1340000  81.8140000  66.3970000
  62.3260000  83.0820000  65.8340000  63.7000000  82.6300000  65.1360000
  72.4930000  88.6540000  70.4770000  71.9430000  89.0000000  69.7390000
  72.4550000  87.6710000  70.4810000  72.1510000  89.0000000  71.3310000
  70.4100000  66.6840000  94.0330000  70.3800000  67.3450000  93.3060000
  71.3090000  66.2880000  94.0800000  69.7480000  65.9770000  93.8620000
  54.9850000  69.8550000  71.7870000  55.1560000  69.1930000  71.0810000
  54.2370000  69.5510000  72.3480000  54.7560000  70.7200000  71.3770000
  72.6500000  56.1890000  56.4870000  73.6130000  56.3710000  56.5600000
  72.5120000  55.3460000  56.0000000  72.2130000  56.9240000  56.0000000
  59.7920000  55.3470000  74.9710000  58.8140000  55.3930000  75.0630000
  60.0640000  54.4130000  74.8300000  60.2150000  55.6920000  75.7900000
  67.6990000  40.7080000  90.2770000  68.1260000  41.4740000  89.8330000
  68.0200000  40.6450000  91.2040000  67.9270000  39.8810000  89.7950000
  60.1560000  65.1710000  91.1640000  59.3520000  65.6540000  91.4580000
  59.9130000  64.5260000  90.4620000  60.5490000  64.6920000  91.9280000
  52.8640000  45.7740000  64.9820000  52.9540000  44.7960000  65.0210000
  53.3650000  46.1790000  65.7240000  51.9150000  46.0190000  65.0540000
  50.3390000  64.5700000  84.0770000  50.2440000  64.5540000  83.0990000
  51.2210000  64.9340000  84.3140000  50.2570000  63.6550000  84.4290000
  84.0480000  86.6210000  58.6420000  83.7330000  86.9000000  59.5300000
  83.6710000  87.2180000  57.9580000  83.7580000  85.6970000  58.4670000
  61.6800000  39.2020000  74.6850000  61.3480000  40.0510000  74.3180000
  61.8820000  38.5830000  73.9490000  60.9930000  38.8060000  75.2680000
  82.0130000  85.0890000  74.8220000  81.1580000  84.6350000  74.6540000
  82.6620000  84.4440000  75.1830000  81.8770000  85.8160000  75.4710000
  41.6790000  78.6360000  83.5280000  40.9520000  78.0160000  83.7590000
  41.4190000  79.1690000  82.7440000  42.4940000  78.1240000  83.3210000
  50.7850000  79.3900000  62.4250000  51.6020000  78.8680000  62.5880000
  50.0420000  79.0070000  62.9410000  50.5670000  79.3660000  61.4660000
  41.2440000  50.5230000  77.1760000  41.4460000  50.2260000  78.0910000
  41.4100000  49.7850000  76.5470000  41.8180000  51.2870000  76.9450000
  66.9310000  67.4710000  70.2120000  66.0180000  67.2110000  70.4670000
  67.4730000  66.6640000  70.0640000  67.3320000  68.0090000  70.9320000
  79.9280000  63.1960000  65.6610000  80.7200000  63.2240000  65.0790000
  79.2060000  62.7070000  65.2070000  79.6310000  64.1130000  65.8560000
  65.3740000  41.5400000  58.7830000  65.9840000  40.8140000  59.0430000
  65.8600000  42.3940000  58.7870000  64.6260000  41.5850000  59.4200000
  48.7140000  38.3820000  92.1150000  49.1140000  38.0650000  92.9550000
  48.7250000  37.6570000  91.4520000  49.2310000  39.1460000  91.7740000
  80.9930000  45.7600000  59.7550000  81.5700000  46.1490000  60.4500000
  81.5510000  45.3620000  59.0500000  80.4260000  46.4640000  59.3670000
  73.9890000  59.9490000  89.6010000  74.2800000  59.5420000  90.4480000
  73.0430000  59.7340000  89.4420000  74.5350000  59.5950000  88.8630000
  61.8970000  32.4780000  91.1010000  61.6020000  31.6070000  90.7530000
  61.1240000  33.0820000  91.1690000  62.5650000  32.8660000  90.4920000
  55.4430000  65.8020000  94.3010000  56.2100000  66.3640000  94.0520000
  54.6590000  66.3730000  94.4680000  55.6590000  65.2950000  95.1160000
  57.7890000  50.7410000  57.9100000  57.0230000  50.8730000  58.5120000
  58.1860000  49.8570000  58.0730000  58.4610000  51.4390000  58.0770000
  46.0510000  79.1210000  66.1010000  46.1400000  78.6930000  65.2200000
  45.6660000  78.4800000  66.7400000  45.4610000  79.9040000  66.0270000
  66.1820000  41.5540000  94.1790000  66.1760000  41.1460000  95.0730000
  67.1110000  41.7110000  93.8960000  65.6980000  42.4100000  94.2060000
  55.4140000  79.8820000  74.7370000  55.6390000  79.2030000  74.0620000
  55.8130000  80.7430000  74.4810000  55.7660000  79.6030000  75.6120000
  83.7010000  67.3730000  75.8930000  82.8170000  67.5930000  75.5220000
  84.3540000  67.3010000  75.1620000  83.6510000  66.5160000  76.3740000
  87.2660000  53.5390000  85.4140000  86.7550000  52.8610000  85.9100000
  88.2150000  53.4820000  85.6630000  86.9220000  54.4340000  85.6340000
  53.9750000  85.1690000  59.0410000  53.3470000  85.7310000  59.5480000
  54.0400000  84.2850000  59.4660000  54.8620000  85.5940000  59.0320000
  55.4920000  68.3160000  96.5000000  54.6470000  68.3490000  95.9980000
  56.0490000  69.0870000  96.2550000  55.9690000  67.4830000  96.2830000
  57.9520000  40.8240000  59.7050000  58.5130000  41.1760000  58.9790000
  58.4090000  40.9560000  60.5660000  57.7940000  39.8640000  59.5610000
  87.2820000  33.0070000  65.7000000  87.2550000  33.4190000  64.8080000
  86.4870000  32.4420000  65.8240000  87.2940000  33.7120000  66.3860000
  82.0760000  49.3180000  59.6120000  81.3030000  49.5390000  60.1780000
  82.0560000  48.3600000  59.3900000  82.9070000  49.5250000  60.0950000
  88.0480000  49.2510000  56.1600000  87.8140000  49.4750000  57.0880000
  87.8780000  48.2960000  56.0000000  89.0000000  49.4450000  56.0060000
  53.1030000  72.4840000  64.3210000  53.3030000  73.0300000  63.5290000
  52.4870000  71.7590000  64.0730000  52.6850000  73.0470000  65.0110000
  45.6870000  55.3650000  80.2080000  46.5930000  55.4960000  80.5670000
  45.5250000  56.0100000  79.4830000  45.0270000  55.5040000  80.9240000
  80.3410000  35.8110000  81.2750000  80.8450000  35.7260000  82.1150000
  80.4060000  36.7360000  80.9460000  79.3970000  35.5860000  81.4340000
  84.0380000  63.7870000  71.1190000  84.5930000  64.4760000  71.5460000
  83.0970000  63.9220000  71.3680000  84.3320000  62.8970000  71.4180000
  45.1350000  41.9770000 125.0050000  45.4150000  41.5450000 125.8430000
  45.2880000  41.3620000 124.2530000  45.6580000  42.7990000 124.8690000
  68.3620000  40.7630000 146.4670000  68.5310000  39.8320000 146.7310000
  68.3250000  41.3300000 147.2700000  67.5050000  40.8180000 145.9870000
  81.9890000  55.2010000 143.5130000  81.6790000  56.0820000 143.8190000
  81.2670000  54.7540000 143.0160000  82.2390000  54.6530000 144.2910000
  69.1140000  35.1090000 140.7600000  69.0030000  34.1530000 140.5590000
  69.9020000  35.4550000 140.2840000  69.2370000  35.2290000 141.7290000
  36.0240000  52.6260000 130.6300000  35.7350000  52.3490000 131.5270000
  36.2030000  51.8290000 130.0820000  36.8430000  53.1660000 130.7010000
  63.0590000  58.0860000 123.9300000  63.8210000  57.5220000 123.6710000
  62.2410000  57.7490000 123.5000000  63.2240000  59.0120000 123.6410000
  84.2840000  32.3010000 154.3770000  83.3410000  32.0610000 154.5200000
  84.7860000  31.5030000 154.0960000  84.6640000  32.6500000 155.2140000
  58.6970000  68.7270000 128.2050000  57.8240000  69.0350000 127.8740000
  59.3400000  69.4700000 128.1770000  59.0220000  67.9910000 127.6380000
  38.7230000  42.5470000 138.8850000  38.0610000  43.2360000 139.1160000
  39.5880000  42.9750000 138.6950000  38.4200000  42.0540000 138.0900000
  46.7920000  86.3970000 148.7780000  47.2730000  87.2010000 148.4820000
  46.8380000  86.3290000 149.7580000  47.2050000  85.6000000 148.3740000
  72.7160000  58.9900000 160.4280000  73.1780000  58.2920000 159.9120000
  72.9130000  59.8710000 160.0370000  73.0260000  58.9690000 161.3610000
  55.6030000  49.6300000 160.6660000  55.3810000  48.7320000 160.3330000
  55.3550000  49.6980000 161.6150000  55.1080000  50.3040000 160.1480000
  50.9240000  59.6180000 140.5160000  51.7710000  59.3490000 140.9350000
  50.3330000  60.0130000 141.1950000  50.4890000  58.8300000 140.1200000
  43.7170000  51.0490000 156.4980000  44.6690000  51.2760000 156.5900000
  43.6110000  50.0710000 156.5100000  43.3750000  51.4060000 155.6480000
  34.1420000  74.9090000 133.1200000  33.8280000  74.3590000 132.3680000
  34.7220000  74.3690000 133.7020000  33.3690000  75.2310000 133.6360000
  75.0700000  52.7660000 159.3050000  74.4200000  53.3530000 159.7520000
  75.8230000  52.5880000 159.9120000  75.4020000  53.2060000 158.4900000
  70.6830000  48.5600000 125.1130000  71.3980000  49.2230000 124.9870000
  69.9080000  48.8050000 124.5590000  70.4160000  48.5410000 126.0600000
  55.0480000  81.4100000 139.6330000  55.1170000  82.2300000 140.1710000
  55.4970000  81.5450000 138.7690000  54.0990000  81.1980000 139.4800000
  55.5710000  75.0240000 162.5730000  56.1270000  74.2630000 162.2940000
  54.6270000  74.7490000 162.6000000  55.6790000  75.7620000 161.9310000
  49.7610000  36.4440000 129.7590000  50.2220000  35.6090000 129.5210000
  50.4020000  37.0680000 130.1670000  49.0400000  36.2500000 130.3990000
  65.6280000  66.2000000 134.7290000  65.1410000  66.9350000 135.1630000
  65.3370000  66.1200000 133.7940000  65.4430000  65.3590000 135.2040000
  80.3110000  41.2190000 125.8360000  80.2970000  40.8430000 126.7440000
  79.4350000  41.6160000 125.6320000  80.5050000  40.5040000 125.1880000
  80.7160000  34.6460000 142.0640000  80.7060000  34.0000000 141.3240000
  79.8030000  34.9700000 142.2290000  81.2960000  35.4050000 141.8300000
  42.2790000  56.7850000 160.7500000  42.8190000  56.3860000 160.0320000
  42.6390000  57.6720000 160.9770000  42.3090000  56.2050000 161.5440000
  84.2500000  70.5460000 147.7610000  83.8770000  70.8030000 148.6330000
  84.7980000  71.2830000 147.4080000  83.5160000  70.3540000 147.1340000
  83.8970000  56.8610000 130.3160000  84.3940000  56.4000000 129.6040000
  84.0600000  56.4090000 131.1740000  82.9360000  56.8400000 130.1110000
  84.6140000  37.7870000 137.7810000  85.2780000  38.1310000 137.1430000
  83.7250000  37.7890000 137.3610000  84.6010000  38.3590000 138.5810000
  57.4640000  79.1340000 138.7790000  58.2780000  78.7090000 138.4280000
  56.9100000  78.4590000 139.2300000  56.9560000  79.5340000 138.0380000
  68.6660000  65.1520000 163.8550000  68.9600000  65.5020000 162.9850000
  68.7680000  64.1740000 163.8660000  67.7220000  65.3850000 164.0000000
  54.8420000  85.0010000 134.7160000  55.0280000  85.4930000 135.5460000
  55.6860000  84.6750000 134.3310000  54.3970000  85.5980000 134.0730000
  49.7360000  65.6860000 145.1260000  49.3450000  65.9790000 145.9790000
  49.1630000  65.9820000 144.3840000  49.8030000  64.7040000 145.1160000
  34.1730000  86.1530000 148.9820000  34.0570000  86.5220000 149.8860000
  35.1300000  86.0100000 148.8070000  33.8100000  86.7850000 148.3210000
  86.3400000  86.1220000 155.3820000  86.3630000  87.0250000 155.7690000
  87.2490000  85.7480000 155.3670000  85.9890000  86.1670000 154.4640000
  47.4260000  58.2530000 161.4620000  48.0810000  58.9760000 161.5790000
  47.8040000  57.4090000 161.7960000  47.2080000  58.1590000 160.5070000
  37.0700000  68.5460000 137.1450000  37.7960000  68.4240000 136.4950000
  37.3930000  69.0900000 137.8980000  36.7750000  67.6690000 137.4770000
  63.3910000  42.4580000 162.6970000  63.9250000  42.6910000 161.9050000
  62.7800000  41.7210000 162.4750000  62.8700000  43.2410000 162.9840000
  87.0700000  40.0230000 130.3820000  87.6610000  39.2650000 130.1770000
  86.9490000  40.0910000 131.3550000  86.1960000  39.8840000 129.9520000
  86.5420000  55.5700000 148.4050000  85.8610000  55.5010000 147.6990000
  86.1140000  55.4690000 149.2850000  86.9800000  56.4490000 148.3530000
  83.2040000  40.7280000 149.2500000  82.6820000  41.2810000 149.8720000
  83.9650000  40.3260000 149.7270000  83.5380000  41.2890000 148.5140000
  47.2500000  35.1030000 150.3170000  47.6530000  34.2180000 150.1750000
  46.3270000  34.9950000 150.6370000  47.2470000  35.6020000 149.4690000
  31.3380000  74.1700000 123.9880000  31.0310000  74.9660000 123.5000000
  31.0000000  73.3610000 123.5430000  31.0000000  74.2020000 124.9120000
  77.8220000  51.3610000 141.6600000  77.0180000  50.8560000 141.9130000
  78.4390000  50.7730000 141.1690000  78.2660000  51.6980000 142.4710000
  42.0810000  86.3480000 153.2440000  42.1210000  85.3760000 153.3870000
  41.1650000  86.6660000 153.4050000  42.3430000  86.5540000 152.3190000
  75.3600000  31.1000000 127.6460000  76.0180000  31.0070000 128.3710000
  75.4510000  31.9880000 127.2330000  74.4530000  31.0000000 128.0120000
  52.6600000  34.0540000 144.6700000  53.6170000  33.9460000 144.4710000
  52.3760000  33.3570000 145.3020000  52.1410000  33.9730000 143.8380000
  55.1160000  64.6540000 138.1190000  54.2760000  64.2180000 137.8530000
  55.4950000  65.1320000 137.3480000  55.7550000  63.9740000 138.4300000
  48.7680000  31.5280000 158.1720000  49.5970000  31.0000000 158.2040000
  48.0590000  31.0000000 157.7420000  48.9240000  32.3510000 157.6550000
  63.2960000  80.8740000 145.8590000  63.4520000  80.1570000 146.5120000
  64.0280000  81.5280000 145.9080000  62.4430000  81.3210000 146.0600000
  81.5970000  34.5060000 138.7700000  81.8250000  34.7990000 137.8600000
  80.6200000  34.4820000 138.8720000  81.9800000  35.1350000 139.4230000
  55.7380000  87.7730000 144.9290000  55.1540000  87.5080000 144.1840000
  55.9730000  88.7230000 144.8400000  56.5570000  87.2290000 144.9130000
  59.1630000  36.7700000 134.2770000  58.9340000  37.6630000 133.9360000
  58.3450000  36.2300000 134.3580000  59.5880000  36.8550000 135.1600000
  62.4460000  81.1920000 124.0290000  61.9210000  81.2180000 124.8590000
  62.2760000  82.0080000 123.5070000  62.1860000  80.4050000 123.5000000
  33.9080000  46.3550000 158.9300000  34.8510000  46.1520000 158.7430000
  33.3420000  45.6260000 158.5910000  33.6590000  47.1970000 158.4850000
  84.9800000  80.6450000 134.8000000  84.4170000  81.3470000 134.4040000
  84.4310000  80.0740000 135.3830000  85.6980000  81.0590000 135.3290000
  74.0110000  70.0620000 141.4350000  74.5800000  70.8300000 141.2060000
  73.1440000  70.3830000 141.7690000  74.4510000  69.5240000 142.1310000
  49.9600000  43.7170000 135.5360000  49.1490000  44.1470000 135.8880000
  50.5220000  44.3910000 135.0920000  49.7080000  43.0210000 134.8880000
  67.4600000  43.0630000 154.6780000  66.5630000  43.2960000 155.0060000
  67.8950000  43.8660000 154.3130000  67.3850000  42.3810000 153.9740000
  74.9340000  72.6070000 161.6860000  74.6530000  71.6970000 161.4460000
  75.2490000  72.6180000 162.6180000  74.1720000  73.2220000 161.5910000
  48.7270000  76.4650000 138.7970000  47.7460000  76.5380000 138.8120000
  49.0860000  76.6840000 139.6860000  49.0920000  77.0910000 138.1320000
  39.3910000  40.5850000 146.9880000  39.9070000  40.3970000 146.1720000
  39.4470000  41.5440000 147.1980000  39.7600000  40.0630000 147.7360000
  76.3310000  34.0200000 131.9130000  75.8820000  33.5730000 132.6650000
  76.7420000  33.3440000 131.3290000  77.0270000  34.6230000 132.2580000
  69.5710000  47.3870000 139.7350000  69.3570000  48.2440000 139.3040000
  68.8350000  46.7520000 139.5870000  69.6940000  47.5270000 140.7010000
  62.4150000  72.2930000 145.9700000  61.9660000  71.6730000 145.3530000
  63.3800000  72.3030000 145.7810000  62.2660000  71.9990000 146.8970000
  71.9180000  55.8290000 133.1490000  72.8440000  55.7260000 133.4630000
  71.9200000  56.0850000 132.1990000  71.4680000  56.5270000 133.6760000
  47.6540000  46.4150000 148.3140000  47.9920000  45.5940000 147.8920000
  47.8770000  47.1890000 147.7490000  48.0700000  46.5250000 149.1980000
  36.2630000  42.1610000 135.2790000  35.9680000  43.0920000 135.3880000
  35.5610000  41.5540000 135.6050000  37.0880000  42.0150000 135.7940000
  36.9550000  67.0960000 130.6440000  36.0020000  67.2020000 130.8590000
  37.0920000  67.2360000 129.6810000  37.2480000  66.1890000 130.8890000
  37.6120000  33.2990000 136.5790000  37.9660000  32.4380000 136.2650000
  37.1960000  33.1810000 137.4630000  36.9390000  33.6290000 135.9420000
  51.3200000  56.3700000 141.1190000  51.1470000  55.4110000 141.2550000
  52.2590000  56.5670000 141.3340000  50.7320000  56.8950000 141.7070000
  48.2690000  61.7840000 161.3180000  47.4430000  62.0420000 161.7840000
  48.9960000  62.3960000 161.5740000  48.1260000  61.8350000 160.3460000
  51.4650000  60.8100000 137.4580000  51.7190000  60.1250000 136.8000000
  51.8780000  61.6680000 137.2150000  51.7750000  60.5380000 138.3510000
  83.0800000  45.2530000 133.0690000  82.1250000  45.4220000 132.9090000
  83.1860000  44.7170000 133.8860000  83.5520000  46.1100000 133.1760000
  47.5330000  86.2890000 158.4790000  48.4060000  86.5970000 158.1470000
  47.2750000  86.8210000 159.2650000  47.5950000  85.3400000 158.7310000
  58.9800000  51.7490000 131.3690000  59.6760000  52.3970000 131.1210000
  58.3380000  52.1740000 131.9790000  59.3960000  50.9770000 131.8160000
  72.3170000  59.1790000 129.4900000  73.1210000  59.7460000 129.4780000
  71.5150000  59.7470000 129.4440000  72.2990000  58.6530000 130.3210000
  40.0140000  48.0160000 128.0520000  39.0680000  48.0280000 127.7830000
  40.5830000  48.0440000 127.2510000  40.2000000  47.1930000 128.5580000
  48.3700000  38.5370000 150.3480000  48.4150000  39.0470000 151.1870000
  47.4650000  38.1690000 150.2360000  49.0220000  37.8000000 150.3770000
  71.9810000  78.4000000 128.5180000  71.0240000  78.3150000 128.3110000
  72.3540000  77.5120000 128.7170000  72.0960000  78.9870000 129.3000000
  36.6150000  34.6410000 149.6530000  36.3670000  34.0560000 148.9030000
  36.0590000  35.4520000 149.6350000  37.5630000  34.8910000 149.5750000
  51.8880000  87.1850000 161.5390000  51.1120000  87.4490000 162.0820000
  51.5830000  86.6650000 160.7620000  52.4970000  86.6370000 162.0820000
  87.5410000  56.2930000 152.8030000  87.0390000  55.5900000 152.3340000
  88.4250000  55.9490000 153.0610000  87.0470000  56.5660000 153.6090000
  83.9240000  70.8810000 159.6980000  84.3960000  71.6330000 160.1180000
  84.3360000  70.0350000 159.9830000  83.9830000  70.9620000 158.7200000
  80.9210000  40.5470000 129.1470000  81.4320000  39.7310000 128.9470000
  81.4720000  41.3360000 128.9480000  80.6710000  40.5520000 130.0980000
  75.9320000  66.2390000 140.3930000  75.3190000  66.4370000 141.1360000
  75.4450000  65.7630000 139.6840000  76.6710000  65.6770000 140.7190000
  44.0820000  40.0100000 128.1410000  45.0640000  40.0280000 128.1210000
  43.7690000  39.0790000 128.0910000  43.7290000  40.5170000 127.3750000
  70.0650000  48.5420000 160.1530000  70.8310000  48.8480000 160.6880000
  69.2470000  48.5830000 160.6970000  70.2180000  47.6150000 159.8620000
  35.4900000  59.3240000 126.2660000  35.6840000  59.5220000 127.2090000
  34.6440000  59.7540000 126.0080000  35.4130000  58.3510000 126.1440000
  81.2120000  69.9160000 127.2090000  81.8570000  69.9250000 126.4680000
  81.0060000  70.8390000 127.4770000  81.5980000  69.4310000 127.9730000
  60.0830000  35.7250000 129.1490000  60.1360000  36.7050000 129.2120000
  60.4280000  35.3240000 129.9780000  60.6220000  35.4160000 128.3870000
  62.8590000  86.2790000 125.5990000  62.2810000  85.4960000 125.7390000
  63.7410000  86.1110000 125.9990000  62.4510000  87.0680000 126.0220000
  64.3110000  53.0020000 144.2140000  64.7120000  52.3900000 144.8700000
  64.1600000  52.5240000 143.3680000  64.9190000  53.7600000 144.0580000
  73.2470000  31.8310000 161.3970000  72.3810000  32.2950000 161.4390000
  73.9730000  32.4940000 161.3720000  73.2820000  31.2760000 160.5860000
  64.5280000  56.1130000  67.1740000  38.8280000  42.0280000  94.2970000
  72.0720000  38.3170000  89.4370000  72.4520000  79.1650000  79.6650000
  53.4590000  85.1600000  66.4480000  71.1460000  40.0070000  87.8450000
  33.7710000  54.7970000  67.5400000  46.6100000  76.1620000  82.3730000
  70.1620000  37.3170000  82.8710000  77.4960000  56.2900000  71.7040000
  42.3190000  77.6540000  85.8210000  62.4890000  56.4070000  65.7580000
  38.6770000  81.9160000  64.5660000  41.9400000  56.3110000  89.6540000
  70.8170000  36.8900000  87.7670000  66.6590000  55.9660000  65.8740000
  87.7730000  43.9790000  58.2220000  89.0000000  82.3100000  69.2480000
  67.7290000  31.0000000  68.3310000  36.8210000  71.1770000  80.6180000
  46.8570000  82.8110000  81.5390000  84.2510000  86.3530000  74.9020000
  77.8480000  72.5250000  93.1620000  77.1120000  44.7260000  86.1750000
  69.8980000  50.8780000  88.7040000  37.3070000  58.3190000  95.0060000
  57.6530000  70.4770000  76.8610000  45.7420000  51.0370000  88.3940000
  45.2600000  31.0000000  91.3960000  58.9750000  34.0660000  74.6800000
  79.2110000  32.7830000  77.5890000  56.3320000  57.5950000  82.0460000
  33.3010000  80.9220000  62.2740000  80.6230000  81.3710000  76.0400000
  80.9150000  33.3130000  79.7120000  74.9730000  47.4470000  93.7400000
  35.0100000  62.7160000  86.9060000  31.8720000  44.5680000  61.3320000
  64.9290000  43.6440000  84.1500000  72.0270000  32.9840000  80.7600000
  86.3430000  84.0800000  88.6660000  41.0980000  49.7970000  60.3290000
  86.5640000  52.7710000  56.6630000  37.2390000  49.8790000  68.9430000
  87.4100000  52.2000000  62.8270000  42.2650000  80.8790000  74.8540000
  87.4190000  61.5090000  85.5270000  65.0990000  33.2220000  70.3160000
  33.4790000  62.2240000  68.0240000  75.7410000  37.6630000  62.2080000
  65.7540000  65.5660000  83.1860000  89.0000000  71.2920000  56.0000000
  51.3350000  86.0150000  61.0120000  44.8540000  31.5440000  57.1400000
  44.5290000  55.7220000  89.1320000  79.6990000  66.5730000  67.2100000
  81.9960000  58.7290000  94.0880000  59.0200000  75.0320000  77.3880000
  68.7200000  67.8610000  88.9040000  83.8840000  65.4680000  56.9680000
  69.7390000  52.4990000  94.2740000  84.8440000  35.6130000  69.6650000
  50.5590000  73.9340000  64.0380000  49.3780000  83.6670000  84.5680000
  60.9510000  57.9890000  67.2490000  80.5930000  82.7290000  61.1890000
  50.2880000  60.3340000  58.3420000  42.4350000  62.0990000  59.4850000
  40.7270000  67.4130000  87.9130000  70.1680000  36.8780000  90.1810000
  83.3100000  42.3700000  82.8090000  79.3460000  56.1230000  59.3740000
  32.5210000  48.6060000  91.7470000  47.0780000  71.5350000  83.0210000
  47.3920000  85.4730000  75.5000000  40.0110000  55.8750000  78.3580000
  86.2690000  75.3260000  75.7620000  61.9020000  66.6350000  89.4180000
  87.3750000  43.3710000  91.3270000  50.5500000  56.3420000  61.5010000
  48.5290000  66.3220000  93.8920000  72.1820000  50.8500000  58.0000000
  42.4020000  66.0090000  83.4860000  64.0890000  40.0820000  57.1200000
  74.9650000  52.0400000  73.4420000  63.6630000  83.9660000  62.2290000
  44.7700000  71.1730000  63.6920000  80.1890000  52.6420000  85.9980000
  66.6530000  58.7200000  95.5030000  72.7880000  68.7510000  64.9300000
  55.4280000  31.8160000  78.8770000  53.1760000  63.2480000  82.6460000
  79.4000000  56.3540000 146.1700000  87.9410000  64.6440000 152.8620000
  79.7650000  54.8660000 148.1450000  42.9220000  58.0210000 158.1440000
  88.8440000  39.6010000 149.9280000  41.1190000  83.9840000 128.6680000
  42.8290000  80.9550000 159.0300000  75.2470000  40.2330000 164.0000000
  41.0910000  81.5770000 125.5010000  44.0290000  82.8210000 144.8700000
  55.7540000  86.4460000 153.2280000  31.0000000  79.3820000 160.4790000
  51.2410000  76.8980000 132.7060000  79.9540000  63.7100000 135.5060000
  74.6930000  36.0600000 141.3140000  73.9500000  55.8680000 130.7570000
  49.4660000  87.9390000 125.6310000  60.6300000  59.5680000 124.0880000
  52.9350000  76.6470000 125.3080000  35.8640000  38.7890000 139.4240000
  89.0000000  45.8180000 125.2770000  62.1660000  85.8050000 140.7470000
  80.6790000  88.4120000 147.1540000  81.1170000  87.8990000 134.6330000
  79.8850000  36.7240000 144.0090000  76.0840000  84.9870000 141.4000000
  40.8760000  43.8330000 156.6190000  81.8650000  72.4330000 131.8650000
  64.4890000  50.7220000 146.7390000  34.5650000  41.7070000 161.4650000
  56.1380000  51.0250000 134.3380000  31.0000000  50.6700000 132.6000000
  67.6220000  35.4130000 130.4450000  40.5130000  40.4930000 143.7460000
  73.9030000  37.9950000 148.7090000  70.7770000  33.1520000 125.5620000
  72.0210000  72.2240000 151.6470000  33.4230000  56.9040000 146.1530000
  85.2590000  31.0000000 148.9650000  44.6390000  49.0790000 132.2310000
  58.3870000  62.1370000 147.9070000  80.3640000  54.0500000 145.8590000
  45.5040000  84.1810000 146.7530000  60.6570000  81.2730000 156.7410000
  47.3890000  56.3090000 134.0040000  56.8200000  68.9010000 146.4130000
  40.2730000  85.7810000 161.7400000  47.9290000  73.7810000 163.0920000
  75.5140000  61.8450000 154.3520000  74.3140000  82.0950000 148.0150000
  69.6130000  77.4440000 147.5570000  44.2510000  57.8870000 156.0300000
  70.8740000  58.7020000 143.0970000  35.6750000  76.0390000 157.9590000
  52.6630000  51.1810000 149.0780000  53.4640000  58.5580000 157.3330000
  45.7700000  37.9760000 159.9240000  34.1100000  56.8490000 132.2380000
  42.1720000  36.3530000 151.1660000  67.8880000  59.2710000 163.3650000
  39.5000000  71.4480000 141.8200000  50.8550000  37.9750000 160.6980000
  64.9540000  55.7870000 159.7450000  45.8510000  54.2560000 156.6820000
  53.3580000  72.8860000 161.5170000  75.2190000  87.5750000 129.6880000
  46.0010000  60.1960000 134.3570000  75.7570000  50.1230000 159.5020000
  67.7170000  59.7790000 136.4920000  72.7880000  74.8410000 138.5800000
  61.2160000  67.1320000 145.5140000  62.1640000  52.1280000 141.9150000
  49.1880000  33.0760000 144.4170000  70.4490000  77.2250000 138.9120000
  69.7070000  87.0340000 144.5750000  48.2650000  44.1900000 154.4130000
  64.2070000  32.4290000 128.7320000  67.4680000  38.9100000 157.9070000
  33.1480000  43.1860000 142.0740000  78.4160000  53.5810000 149.9470000
  50.1360000  37.8580000 133.5490000  44.4520000  75.5660000 152.8460000
  82.4710000  79.8140000 142.8060000  39.0360000  82.3970000 132.4910000
  40.8960000  82.4500000 160.9120000  37.9640000  84.3920000 130.7520000
  44.1380000  59.6320000 159.6190000  36.2160000  65.0070000 163.7900000
  79.5980000  47.6440000 161.6170000  32.4560000  36.7680000 123.5000000
  56.1940000  40.6810000 150.8290000  37.4980000  72.8710000 149.0870000
  40.2560000  52.9590000  89.5530000  40.3170000  52.6970000  90.4710000
  40.3040000  53.9150000  89.5720000  43.0790000  60.2660000  83.4880000
  42.1240000  60.2290000  83.4520000  43.3530000  59.3510000  83.5440000
  62.1480000  59.3650000  78.3320000  63.0870000  59.5370000  78.4030000
  62.0810000  58.4100000  78.3000000  88.9980000  69.4520000  80.9010000
  88.8170000  68.5120000  80.8910000  88.1330000  69.8630000  80.8730000
  39.8240000  61.3840000  85.0080000  39.7890000  62.2610000  84.6260000
  40.6740000  61.3480000  85.4480000  33.6980000  31.0650000  71.9800000
  33.3980000  31.0000000  72.8860000  32.9450000  31.4120000  71.5010000
  31.2560000  52.2800000  61.5600000  32.1340000  51.9110000  61.4670000
  31.0000000  52.0680000  62.4580000  82.0340000  62.2750000  86.9700000
  82.8280000  62.1950000  87.4980000  81.8910000  61.3970000  86.6160000
  48.7430000  61.3320000  82.7740000  48.7540000  60.3820000  82.8870000
  48.9390000  61.6800000  83.6440000  47.0520000  78.1830000  72.6940000
  47.8450000  78.1960000  72.1580000  47.2780000  78.6970000  73.4690000
  71.8080000  82.0180000  71.3530000  72.4070000  81.8370000  72.0780000
  71.1130000  81.3670000  71.4490000  61.6710000  75.6160000  58.7460000
  62.0670000  75.2820000  59.5510000  62.2010000  75.2390000  58.0430000
  58.8560000  87.2040000  93.6730000  59.1540000  88.1060000  93.7880000
  58.6160000  86.9160000  94.5540000  58.3290000  50.0190000  60.7760000
  57.4660000  49.6590000  60.9790000  58.8200000  49.2780000  60.4210000
  57.8560000  63.0140000  79.4180000  58.5750000  63.6140000  79.6170000
  57.3780000  62.9290000  80.2430000  88.4870000  89.0000000  67.3390000
  89.0000000  88.5220000  66.6880000  89.0000000  88.9330000  68.1450000
  73.1720000  44.4930000  58.8840000  73.3980000  45.4190000  58.9630000
  72.9580000  44.2210000  59.7760000  48.6780000  36.9440000  78.9400000
  48.8910000  36.3480000  79.6590000  48.3800000  36.3700000  78.2340000
  54.2910000  65.0700000  76.4460000  53.3490000  65.2340000  76.4070000
  54.6850000  65.9420000  76.4630000  38.9920000  72.2380000  79.9760000
  38.8550000  72.6800000  80.8130000  38.6160000  72.8340000  79.3260000
  89.0000000  47.9550000  84.0060000  88.9970000  48.8210000  84.4140000
  88.9800000  47.3430000  84.7430000  48.1820000  82.4120000  96.5000000
  47.2360000  82.2740000  96.4440000  48.2950000  83.3550000  96.3830000
  77.4320000  82.2870000  84.4960000  77.3120000  81.4390000  84.9230000
  78.2090000  82.1720000  83.9480000  70.7600000  73.9660000  76.8190000
  70.4610000  74.6760000  77.3860000  71.6820000  73.8450000  77.0510000
  67.3070000  61.8410000  87.5710000  68.1080000  61.7190000  88.0810000
  66.9640000  60.9560000  87.4490000  36.5390000  76.2620000  56.5420000
  36.5930000  75.4750000  56.0000000  35.7660000  76.7250000  56.2160000
  81.0060000  48.3710000  75.7480000  81.6640000  47.8740000  75.2630000
  80.9550000  49.2110000  75.2910000  75.1470000  40.1900000  59.2270000
  74.9700000  39.2970000  59.5240000  75.6230000  40.5950000  59.9520000
  59.2390000  35.4150000  62.9830000  59.8910000  35.0100000  62.4110000
  58.9870000  34.7180000  63.5890000  31.8880000  60.4290000  96.4790000
  31.7630000  59.4810000  96.5000000  31.0000000  60.7870000  96.4470000
  45.7610000  31.1130000  96.3190000  45.6930000  31.9960000  95.9550000
  46.6940000  31.0000000  96.5000000  61.2150000  74.4300000  96.5000000
  61.8220000  75.1700000  96.5000000  61.7800000  73.6570000  96.5000000
  45.2020000  70.4250000  66.2380000  44.4220000  70.9590000  66.3870000
  44.8690000  69.6160000  65.8490000  88.7320000  43.1500000  74.3590000
  88.9300000  43.6460000  75.1530000  89.0000000  43.7270000  73.6430000
  88.9660000  69.6020000  94.0720000  89.0000000  70.4850000  94.4390000
  88.9760000  69.7350000  93.1240000  58.1830000  70.0740000  62.1890000
  58.5400000  69.4530000  61.5550000  58.9090000  70.6680000  62.3790000
  31.0000000  63.7630000  70.3040000  31.1590000  64.3070000  71.0740000
  31.2140000  62.8740000  70.5890000  39.2320000  64.3060000  96.4690000
  40.1810000  64.3920000  96.3790000  38.9120000  65.2080000  96.5000000
  76.0500000  38.5830000  86.2370000  75.4090000  37.9360000  86.5280000
  75.5810000  39.1130000  85.5920000  86.6080000  54.0590000  76.6400000
  86.2340000  53.4390000  77.2660000  85.8560000  54.5500000  76.3080000
  38.6050000  65.7020000  88.2060000  39.2140000  65.7100000  88.9440000
  38.5530000  64.7820000  87.9470000  44.6640000  48.8610000  96.4860000
  44.2340000  48.0060000  96.4780000  45.6000000  48.6590000  96.5000000
  69.5870000  33.0850000  64.2210000  69.6490000  32.1740000  63.9340000
  69.0070000  33.0570000  64.9830000  73.9040000  42.3890000  96.4480000
  73.0350000  42.7880000  96.4500000  74.5090000  43.1290000  96.5000000
  31.0000000  67.6820000  73.1680000  31.1820000  67.7620000  74.1040000
  31.0400000  66.7410000  72.9950000  81.9920000  34.7950000  74.7990000
  81.4960000  35.5040000  75.2080000  82.8880000  34.9170000  75.1130000
  80.9000000  55.1020000  64.2510000  81.5580000  54.8760000  64.9080000
  80.9190000  56.0590000  64.2120000  37.7830000  60.9090000  56.3220000
  36.8830000  60.6230000  56.4810000  38.2300000  60.1260000  56.0000000
  86.1350000  71.4170000  56.2800000  86.2880000  70.5150000  56.0000000
  85.7930000  71.3360000  57.1710000  76.6050000  76.3410000  63.9070000
  75.6630000  76.5110000  63.8830000  76.9950000  77.1830000  64.1430000
  41.6200000  69.1460000  56.0110000  40.7050000  69.4250000  56.0000000
  41.6350000  68.3950000  56.6040000  48.0240000  68.9730000  78.7630000
  47.9350000  68.0200000  78.7310000  47.8190000  69.2030000  79.6700000
  59.0860000  54.5880000  72.4990000  58.1800000  54.8050000  72.7170000
  59.0470000  53.6850000  72.1840000  64.3790000  70.1210000  64.4430000
  63.5140000  69.7130000  64.3980000  64.9920000  69.3980000  64.3150000
  75.4360000  71.9680000  92.3450000  75.5060000  71.6530000  93.2460000
  76.0360000  71.4100000  91.8480000  45.0060000  76.1830000  74.2690000
  45.1330000  75.5400000  74.9670000  45.8020000  76.7140000  74.2840000
  42.9500000  69.0190000  70.5890000  42.0870000  68.6260000  70.4600000
  43.2380000  68.6920000  71.4420000  51.3580000  71.6680000  56.0000000
  51.4080000  72.6210000  56.0680000  50.4200000  71.4760000  56.0100000
  62.8820000  37.1310000  68.9330000  63.4540000  36.5150000  69.3900000
  63.0550000  36.9760000  68.0040000  78.2460000  43.5030000  68.2600000
  78.6850000  42.8250000  68.7730000  77.3790000  43.1410000  68.0750000
  31.5730000  65.3120000  74.9760000  31.0000000  64.6860000  74.5330000
  31.0000000  65.7640000  75.5960000  81.1490000  35.0540000  56.0720000
  82.0220000  34.6680000  56.0000000  81.2990000  35.9980000  56.0260000
  34.9500000  31.5630000  81.3380000  35.4510000  31.0000000  81.9270000
  35.2600000  31.3310000  80.4620000  63.5670000  63.5710000  93.9340000
  63.7980000  64.4980000  93.9960000  62.9990000  63.5160000  93.1650000
  41.8480000  40.9940000  93.5750000  42.4770000  41.4400000  94.1410000
  42.3600000  40.7240000  92.8120000  79.0330000  38.4350000  94.1340000
  78.5290000  39.2130000  93.8970000  79.7580000  38.4200000  93.5090000
  34.3940000  40.8190000  92.3100000  34.0120000  40.1480000  92.8760000
  33.7370000  40.9620000  91.6290000  57.3940000  80.8080000  68.0790000
  57.5170000  80.5140000  68.9820000  57.9740000  80.2470000  67.5630000
  40.1880000  61.3480000  76.3520000  40.4400000  60.4920000  76.0070000
  40.9510000  61.6400000  76.8520000  54.6560000  77.4480000  64.4990000
  53.7750000  77.6990000  64.2240000  54.5240000  76.6830000  65.0600000
  83.8400000  49.5930000  75.3460000  84.5690000  49.9500000  75.8530000
  84.0370000  48.6590000  75.2690000  55.3770000  88.0600000  94.1310000
  55.1940000  89.0000000  94.1450000  55.8120000  87.8880000  94.9660000
  31.2960000  67.3330000  92.4750000  32.0460000  67.3570000  93.0690000
  31.0000000  66.4230000  92.5000000  62.3580000  79.2990000  74.8020000
  61.5030000  79.6430000  74.5450000  62.2000000  78.8680000  75.6420000
  71.8870000  80.3690000  67.9800000  71.4310000  80.0080000  67.2210000
  72.6880000  80.7500000  67.6200000  51.7850000  88.9360000  81.1570000
  51.5090000  88.1770000  80.6440000  51.9040000  88.5950000  82.0440000
  89.0000000  61.9600000  87.8770000  88.1090000  62.3000000  87.7960000
  88.9710000  61.1060000  87.4460000  79.6400000  76.1660000  91.2790000
  80.4160000  76.7080000  91.1370000  79.9840000  75.2780000  91.3810000
  80.9160000  75.9710000  61.6800000  80.1040000  76.0700000  62.1760000
  81.5850000  76.3790000  62.2300000  55.2760000  55.0190000  59.6930000
  55.8870000  54.7400000  59.0120000  55.2720000  55.9750000  59.6360000
  31.0190000  68.6920000  89.6550000  31.0490000  69.2840000  90.4070000
  31.0000000  67.8160000  90.0400000  59.9360000  48.6830000  62.6730000
  60.5750000  49.2170000  62.2010000  59.2820000  49.3090000  62.9830000
  72.5620000  74.1880000  67.7740000  73.1200000  74.4020000  68.5210000
  72.2890000  75.0380000  67.4270000  60.6050000  53.2700000  92.0710000
  59.9440000  53.5920000  92.6830000  61.2840000  53.9450000  92.0740000
  31.1670000  54.2120000  89.2150000  31.0350000  53.2690000  89.3090000
  31.0000000  54.5660000  90.0890000  81.7680000  50.1200000  68.8940000
  81.2070000  49.6450000  68.2820000  81.6780000  49.6450000  69.7200000
  41.6650000  71.9070000  91.9700000  40.9420000  71.8540000  92.5960000
  42.2360000  71.1740000  92.2010000  51.3160000  65.2140000  63.7650000
  50.5180000  64.8040000  64.0980000  51.0140000  65.8000000  63.0710000
  52.6020000  78.6600000  88.7470000  52.6070000  77.7950000  88.3360000
  53.4240000  78.6980000  89.2360000  33.1800000  56.4510000  70.2310000
  33.1940000  57.3850000  70.0200000  33.7830000  56.3630000  70.9690000
  86.6610000  82.5940000  77.7720000  85.7610000  82.3120000  77.9330000
  87.1570000  82.2510000  78.5150000  65.3330000  41.9070000  82.2260000
  64.4920000  41.7010000  82.6330000  65.4560000  41.2230000  81.5670000
  32.4810000  72.4780000  69.0870000  31.8790000  73.2210000  69.0640000
  33.0360000  72.6410000  69.8500000  81.7960000  49.2490000  62.6110000
  81.4500000  50.1410000  62.6040000  82.7110000  49.3480000  62.8780000
  40.0730000  75.8220000  91.8420000  40.5560000  75.9380000  92.6590000
  39.3930000  76.4970000  91.8660000  51.1890000  68.5290000  79.8800000
  51.6190000  69.3150000  80.2160000  51.8240000  67.8270000  80.0300000
  89.0000000  55.7400000  84.4400000  88.9680000  55.8510000  85.3900000
  88.1380000  56.0240000  84.1360000  74.3680000  74.9960000  71.9020000
  75.2010000  74.9430000  71.4350000  74.2100000  75.9350000  72.0050000
  45.9200000  67.6450000  64.0750000  46.5150000  67.4580000  64.8010000
  46.0510000  68.5750000  63.8910000  75.6070000  63.8160000  90.9870000
  75.2050000  63.0490000  90.5810000  75.0980000  64.5570000  90.6580000
  83.7250000  31.0610000  69.0160000  83.9380000  31.0330000  69.9480000
  84.5720000  31.0000000  68.5740000  59.1510000  42.8290000  86.9720000
  58.8150000  42.4970000  87.8050000  59.4490000  42.0480000  86.5050000
  61.1100000  64.2380000  85.3000000  61.3550000  63.5400000  85.9070000
  60.1620000  64.1440000  85.1960000  78.9700000  31.0290000  87.7290000
  78.3830000  31.0040000  86.9730000  79.8490000  31.0000000  87.3510000
  67.6400000  89.0000000  90.8320000  66.8530000  88.8720000  90.3030000
  68.3640000  88.9050000  90.2120000  79.0370000  69.3420000  57.8150000
  78.5650000  70.1420000  57.5850000  79.9560000  69.6080000  57.8520000
  33.9660000  66.1110000  72.5550000  34.6200000  65.7740000  73.1670000
  34.1100000  67.0580000  72.5470000  67.3350000  55.4720000  62.7580000
  66.4480000  55.8160000  62.8590000  67.9030000  56.2330000  62.8760000
  80.2380000  74.4800000  74.9260000  80.4900000  75.3640000  75.1920000
  80.5780000  74.3910000  74.0350000  33.7750000  86.0790000  71.7420000
  33.1910000  86.8240000  71.8830000  33.2080000  85.3110000  71.8220000
  64.4890000  79.5180000  85.7850000  63.7940000  79.8810000  85.2360000
  64.1320000  78.6900000  86.1080000  54.4150000  39.2790000  60.5390000
  53.7150000  39.8770000  60.8000000  55.1110000  39.8500000  60.2140000
  50.1650000  57.1940000  91.8020000  50.7950000  57.1330000  92.5200000
  50.6480000  56.8920000  91.0320000  54.3040000  38.7150000  92.1880000
  53.5430000  38.1600000  92.3600000  54.0100000  39.6000000  92.4050000
  79.9060000  34.8340000  69.8730000  79.1290000  35.3940000  69.8690000
  79.5620000  33.9480000  69.9960000  47.9840000  31.8260000  83.8120000
  48.4310000  31.0000000  83.6300000  47.8910000  32.2430000  82.9550000
  53.5140000  83.6460000  86.9530000  52.5670000  83.7310000  87.0610000
  53.6260000  82.8580000  86.4210000  67.4450000  31.0700000  65.6600000
  66.5530000  31.0000000  66.0000000  67.3450000  31.0100000  64.7090000
  71.8040000  46.6180000  76.7300000  71.9760000  46.6460000  77.6710000
  71.9470000  47.5170000  76.4330000  86.9670000  88.9440000  85.6330000
  87.8910000  89.0000000  85.3900000  86.8700000  88.0680000  86.0090000
  46.9940000  36.7630000  67.7110000  46.9270000  37.5840000  68.1980000
  46.1450000  36.6690000  67.2790000  49.4910000  58.3810000  95.8900000
  49.4240000  58.7840000  95.0240000  49.2770000  59.0880000  96.5000000
  67.3240000  59.1990000  64.4790000  66.5330000  59.3440000  63.9600000
  67.6600000  58.3560000  64.1740000  45.1010000  50.8450000  94.5530000
  45.8790000  50.2930000  94.6280000  44.3820000  50.2280000  94.4120000
  61.3510000  77.8970000  86.8450000  62.1790000  77.5140000  87.1340000
  60.7240000  77.1740000  86.8870000  72.8760000  42.2900000  72.5300000
  73.6610000  42.1130000  72.0120000  73.2080000  42.5460000  73.3910000
  44.4410000  83.7680000  56.1440000  45.3540000  83.5260000  56.3010000
  43.9930000  82.9340000  56.0000000  51.9600000  57.1360000  82.5440000
  52.4670000  57.5990000  81.8770000  51.3450000  57.7910000  82.8760000
  50.4890000  59.6460000  70.3350000  50.7240000  58.7820000  70.6720000
  49.5460000  59.7160000  70.4910000  76.1270000  75.0430000  59.0400000
  76.2380000  75.6130000  58.2790000  75.5250000  75.5200000  59.6110000
  54.6180000  85.4790000  85.6330000  55.2990000  86.1510000  85.6640000
  53.8000000  85.9600000  85.7610000  82.1960000  70.6990000  57.6470000
  82.2160000  70.2650000  56.7950000  83.1180000  70.8200000  57.8760000
  77.5890000  64.3970000  72.7900000  78.0460000  64.8200000  73.5170000
  76.6820000  64.6930000  72.8740000  60.5080000  52.5930000  69.6160000
  60.9410000  52.4120000  70.4500000  59.6760000  52.9990000  69.8600000
  31.0000000  88.1770000  75.7070000  31.7310000  88.3450000  75.1140000
  31.0030000  87.2270000  75.8280000  80.2230000  50.1840000  84.3350000
  79.9410000  51.0610000  84.0770000  80.4570000  50.2690000  85.2600000
  31.5770000  74.4920000  80.4600000  31.0000000  73.7610000  80.2400000
  31.0000000  75.1380000  80.8690000  47.1170000  88.2970000  92.5000000
  47.7670000  89.0000000  92.5120000  47.5690000  87.5590000  92.0900000
  39.3650000  40.2900000  64.3260000  39.0150000  39.5340000  64.7980000
  39.0880000  40.1560000  63.4190000  31.5860000  64.0770000  56.0030000
  31.0000000  63.3200000  56.0050000  31.0000000  64.8340000  56.0000000
  46.1050000  48.8470000  72.7900000  46.9200000  48.7890000  73.2880000
  45.9510000  49.7870000  72.6900000  42.5530000  42.1200000  56.8660000
  41.6780000  41.7700000  56.6970000  43.1010000  41.3460000  56.9950000
  53.1630000  50.3880000  77.7100000  52.3230000  50.7400000  78.0040000
  52.9820000  49.4700000  77.5080000  63.0460000  68.5490000  74.6920000
  62.6900000  68.7700000  73.8310000  63.8860000  69.0080000  74.7280000
  42.2890000  73.1560000  67.6650000  42.5320000  72.6080000  66.9190000
  42.2410000  72.5490000  68.4040000  47.9110000  69.3210000  83.8310000
  47.4380000  69.6200000  84.6070000  48.8330000  69.4690000  84.0400000
  32.9880000  70.9490000  56.0000000  32.3830000  71.6900000  56.0000000
  33.8580000  71.3490000  56.0000000  37.5830000  71.6770000  94.0800000
  37.3120000  72.5050000  94.4750000  36.7880000  71.1420000  94.0730000
  37.2630000  57.8290000  91.9530000  36.4360000  58.0520000  92.3800000
  37.8830000  58.4830000  92.2760000  36.3000000  38.9380000  69.3300000
  36.1560000  39.8840000  69.3170000  35.5980000  38.5800000  68.7860000
  84.2150000  83.6790000  82.7290000  85.0690000  83.9840000  82.4240000
  84.0690000  84.1530000  83.5470000  54.6990000  44.6680000  85.9170000
  55.0790000  45.4820000  85.5870000  54.2710000  44.2760000  85.1550000
  55.2770000  31.4830000  59.4240000  54.7370000  31.0000000  58.7980000
  55.1800000  31.0020000  60.2460000  50.5840000  74.0140000  61.5090000
  50.5750000  73.9380000  60.5560000  51.5090000  74.1230000  61.7330000
  66.2110000  62.2830000  84.9780000  66.8740000  62.8720000  85.3360000
  66.7040000  61.5190000  84.6790000  44.3990000  78.0720000  89.5520000
  45.3250000  78.2750000  89.6820000  44.0210000  78.8830000  89.2100000
  38.0740000  86.6980000  86.0580000  37.8240000  87.5830000  85.7950000
  37.2500000  86.2830000  86.3160000  31.5510000  58.1520000  64.2900000
  31.0000000  57.4670000  63.9130000  31.0000000  58.5630000  64.9570000
  84.0070000  79.3460000  85.6070000  83.4090000  80.0880000  85.6890000
  83.5270000  78.6070000  85.9820000  63.8680000  53.2090000  71.8950000
  64.4330000  52.4490000  72.0340000  64.4610000  53.9600000  71.9350000
  75.0460000  88.9900000  70.4660000  74.9130000  88.0670000  70.2540000
  75.2020000  89.0000000  71.4100000  62.2310000  33.3140000  56.1000000
  62.7490000  32.5150000  56.0090000  62.8650000  34.0240000  56.0000000
  36.3740000  51.7740000  64.9930000  36.9110000  51.4160000  65.7000000
  35.9290000  51.0130000  64.6200000  44.8920000  88.4230000  64.5510000
  44.4540000  89.0000000  63.9250000  45.4790000  89.0000000  65.0400000
  68.4400000  69.0500000  84.0870000  68.0180000  69.6040000  83.4310000
  68.0760000  69.3470000  84.9220000  76.6420000  66.3390000  75.1000000
  77.0590000  65.8000000  75.7720000  77.3020000  66.9970000  74.8770000
  85.6510000  85.5660000  86.1320000  84.7430000  85.2730000  86.0650000
  86.1610000  84.7570000  86.1940000  62.4000000  82.3780000  89.3720000
  63.0760000  82.8460000  88.8810000  61.5750000  82.7510000  89.0590000
  78.1880000  55.0950000  96.4450000  77.8460000  55.9870000  96.5000000
  79.1400000  55.2030000  96.4360000  78.1310000  73.8400000  80.0120000
  78.0000000  73.5130000  79.1220000  77.4880000  74.5430000  80.1070000
  88.2850000  63.5710000  56.0020000  87.9620000  63.5740000  56.9030000
  88.9970000  64.2120000  56.0000000  46.0600000  82.5390000  87.9840000
  46.1220000  83.4930000  88.0340000  46.9680000  82.2380000  88.0020000
  33.7090000  44.3050000  85.0310000  33.5110000  44.3850000  85.9640000
  34.6650000  44.3290000  84.9860000  69.9730000  86.8160000  96.5000000
  70.8760000  86.5260000  96.3750000  69.6220000  86.8980000  95.6130000
  56.1450000  72.6990000  92.5690000  55.3480000  72.2360000  92.8250000
  56.8240000  72.0240000  92.5630000  39.2830000  47.2390000  56.0960000
  38.5550000  46.6250000  56.0000000  40.0620000  46.6840000  56.1280000
  69.0780000  80.8280000  67.0000000  68.3880000  80.4500000  66.4550000
  68.6690000  80.9430000  67.8580000  61.6320000  56.0950000  79.1290000
  60.8190000  55.9150000  79.6010000  62.3040000  55.6200000  79.6190000
  53.6570000  86.0890000  92.2660000  53.8110000  87.0060000  92.4910000
  53.7880000  85.6150000  93.0880000  63.9920000  85.2900000  64.3230000
  63.7360000  85.1990000  65.2410000  64.8510000  84.8700000  64.2720000
  40.7160000  45.1630000  67.4340000  41.4420000  45.2290000  66.8140000
  41.1320000  44.9470000  68.2690000  40.5060000  73.1730000  77.3740000
  39.9590000  72.4560000  77.0550000  39.9440000  73.9460000  77.3190000
  74.4990000  66.5470000  83.4060000  74.0370000  66.7850000  82.6020000
  73.8280000  66.5820000  84.0880000  77.7610000  48.1070000  56.0000000
  78.0650000  49.0140000  56.0290000  77.5060000  47.9110000  56.9020000
  31.5950000  67.1770000  56.8670000  31.9400000  67.3890000  56.0000000
  32.3580000  67.2150000  57.4450000  39.6000000  88.9270000  94.7160000
  38.6980000  89.0000000  95.0290000  40.1350000  89.0000000  95.5070000
  42.5330000  50.7760000  72.5150000  41.6300000  50.5550000  72.2890000
  43.0080000  49.9470000  72.4460000  62.9320000  62.4930000  64.6200000
  62.4540000  61.6870000  64.4270000  63.2670000  62.3660000  65.5080000
  81.5630000  36.3830000  72.8680000  81.4930000  37.1070000  72.2460000
  81.5720000  35.5970000  72.3210000  75.7510000  79.3260000  68.2440000
  75.0370000  78.8820000  67.7860000  76.4910000  78.7220000  68.1780000
  58.0860000  70.5760000  81.9510000  58.7930000  69.9370000  81.8730000
  57.4290000  70.2860000  81.3180000  80.3960000  54.8870000  83.4710000
  80.5140000  55.7180000  83.9310000  80.0310000  54.2970000  84.1310000
  47.0320000  54.5680000  62.5820000  47.3540000  54.6000000  63.4830000
  46.1250000  54.2720000  62.6610000  68.7830000  76.9260000  96.1300000
  67.9060000  77.0250000  96.5000000  69.2670000  77.6880000  96.4530000
  34.7660000  82.8810000  81.1570000  33.9260000  83.3360000  81.1070000
  34.8150000  82.5660000  82.0600000  73.6010000  88.6620000  84.3230000
  73.1690000  87.8120000  84.4000000  73.6280000  89.0000000  85.2190000
  43.7620000  44.5150000  70.3860000  43.3550000  44.6830000  69.5370000
  43.8190000  45.3770000  70.8000000  50.4510000  53.8920000  65.7530000
  49.9220000  54.1840000  65.0120000  49.8530000  53.3650000  66.2830000
  73.5370000  45.3960000  80.5420000  74.2890000  44.8040000  80.5230000
  73.2190000  45.4090000  79.6390000  47.5110000  31.0000000  57.4070000
  47.4620000  31.1040000  56.4570000  47.5220000  31.8950000  57.7470000
  83.1720000  86.2210000  65.9340000  82.9430000  87.0180000  66.4120000
  83.8480000  85.8050000  66.4710000  44.4180000  49.1200000  70.4270000
  45.3420000  48.8750000  70.3890000  44.0450000  48.7730000  69.6160000
  82.3790000  31.1810000  65.6640000  81.9330000  31.9870000  65.9260000
  82.9880000  31.0000000  66.3800000  54.9770000  61.6920000  80.7880000
  54.5940000  61.4560000  81.6330000  54.7460000  62.6130000  80.6680000
  88.0290000  59.9620000  61.8960000  87.6670000  60.8110000  61.6440000
  88.9640000  60.0310000  61.6980000  36.9450000  55.7820000  90.3160000
  37.5080000  55.8530000  89.5450000  36.2170000  55.2280000  90.0310000
  81.9170000  61.1700000  73.9700000  82.6500000  61.4620000  74.5110000
  81.4640000  61.9770000  73.7230000  60.4070000  33.0810000  65.3840000
  59.4960000  33.2990000  65.5830000  60.8180000  33.9230000  65.1870000
  85.8940000  78.1420000  96.5010000  86.6910000  78.6720000  96.4820000
  85.1810000  78.7810000  96.4630000  57.0960000  75.5280000  87.7800000
  57.6480000  74.9710000  88.3280000  56.2040000  75.3530000  88.0810000
  53.2240000  31.0000000  73.5570000  52.7670000  31.0260000  74.3970000
  54.1490000  31.0910000  73.7840000  87.3490000  84.8410000  90.8600000
  88.0270000  85.0730000  90.2250000  87.7820000  84.2370000  91.4630000
  31.4860000  47.3320000  70.1650000  31.2900000  46.5000000  70.5950000
  31.4480000  47.9810000  70.8670000  47.0550000  46.7210000  68.7250000
  47.9450000  46.7370000  69.0780000  46.7060000  45.8700000  68.9920000
  64.7650000  87.2460000  77.7640000  64.5230000  87.3140000  76.8400000
  64.6210000  88.1260000  78.1150000  80.3090000  41.6120000  56.0860000
  80.2670000  42.5680000  56.0680000  81.2420000  41.4120000  56.0000000
  88.6540000  73.1050000  73.1920000  88.1990000  73.4490000  72.4240000
  88.6400000  72.1540000  73.0740000  89.0020000  87.4800000  74.4830000
  89.0000000  87.0470000  73.6300000  89.0000000  88.4160000  74.2780000
  62.0630000  32.5170000  75.5150000  62.7220000  32.9100000  76.0870000
  61.2670000  33.0230000  75.6830000  67.4850000  54.0000000  92.9820000
  67.4320000  53.2410000  92.4020000  68.4190000  54.2100000  93.0180000
  41.2180000  48.2480000  89.4270000  42.1460000  48.4130000  89.2610000
  41.1470000  47.2930000  89.4660000  71.7340000  63.2750000  93.2850000
  71.7320000  63.8240000  94.0680000  71.6450000  63.8920000  92.5580000
  34.9940000  80.7730000  78.8360000  35.6630000  81.3810000  78.5240000
  34.2520000  80.9100000  78.2460000  68.0070000  82.3640000  77.2080000
  67.1620000  81.9580000  77.3990000  68.3630000  81.8500000  76.4830000
  64.3650000  54.9880000  92.8400000  64.3450000  54.0640000  92.5910000
  65.2960000  55.2040000  92.8860000  67.5350000  76.3690000  70.1660000
  68.4570000  76.5190000  70.3710000  67.1120000  77.2120000  70.3330000
  47.6600000  51.3230000  64.2000000  47.0240000  50.8030000  64.6900000
  48.2410000  51.6850000  64.8690000  49.9530000  72.4930000  79.7250000
  49.0740000  72.1810000  79.9380000  49.8320000  73.0440000  78.9510000
  38.0260000  80.2210000  67.1180000  37.5870000  80.8540000  66.5500000
  38.6980000  80.7300000  67.5720000  39.6100000  45.0820000  95.2360000
  39.8690000  44.4540000  94.5620000  38.6540000  45.0240000  95.2630000
  51.9310000  54.4700000  92.1780000  50.9980000  54.6300000  92.0380000
  52.3580000  55.2820000  91.9020000  77.1390000  65.5330000  61.7320000
  76.7900000  66.3520000  61.3800000  77.7720000  65.2400000  61.0770000
  72.2950000  35.9050000  62.9030000  71.5450000  36.4530000  63.1330000
  71.9920000  35.3830000  62.1590000  85.4320000  74.9920000  85.5840000
  85.1460000  75.3250000  86.4350000  84.6450000  74.6050000  85.2010000
  38.9830000  88.0710000  88.3020000  39.4240000  87.2230000  88.2600000
  38.0500000  87.8570000  88.2730000  89.0000000  79.2380000  56.0010000
  88.4040000  79.9870000  56.0000000  88.4240000  78.4730000  56.0180000
  70.2960000  45.3570000  56.4830000  69.8300000  44.5380000  56.6510000
  70.4300000  45.7390000  57.3510000  71.6330000  87.9620000  61.6610000
  70.8730000  87.5270000  61.2770000  71.3490000  88.8670000  61.7950000
  34.6290000  60.4950000  69.4170000  34.0820000  59.8040000  69.0440000
  34.8720000  60.1680000  70.2830000  85.3240000  62.2290000  76.4510000
  84.9120000  61.7390000  75.7390000  85.0510000  63.1350000  76.3080000
  80.4310000  88.9880000  65.4960000  79.9480000  88.8480000  66.3110000
  79.7570000  89.0000000  64.8170000  81.6970000  31.2110000  77.8460000
  81.6050000  31.0000000  76.9170000  80.8430000  31.0000000  78.2260000
  88.8890000  60.7520000  82.7550000  89.0000000  61.1280000  83.6290000
  87.9780000  60.4610000  82.7330000  31.5930000  55.7170000  77.0480000
  32.4660000  56.1040000  76.9920000  31.0000000  56.4670000  77.0960000
  77.9890000  58.6190000  83.2950000  77.1940000  58.0940000  83.2040000
  77.6820000  59.4600000  83.6370000  68.6230000  42.2920000  96.5000000
  68.0770000  42.8200000  95.9170000  68.2390000  41.4160000  96.4600000
  75.7150000  67.4330000  58.6100000  76.0980000  66.5560000  58.5970000
  76.4670000  68.0240000  58.5700000  58.3170000  89.0000000  80.2970000
  58.4750000  88.0900000  80.0480000  58.3670000  88.9990000  81.2530000
  69.9890000  66.9860000  96.4940000  70.6710000  66.3140000  96.5000000
  70.4690000  67.8150000  96.4920000  56.6140000  44.0610000  70.2310000
  55.9540000  43.8320000  70.8850000  57.0650000  44.8200000  70.6020000
  64.6770000  57.1520000  74.0940000  65.0180000  56.6960000  74.8630000
  64.7490000  58.0810000  74.3150000  80.6450000  72.3990000  91.5790000
  81.2470000  73.1390000  91.6620000  79.7740000  72.7960000  91.5900000
  35.3960000  42.9960000  91.5980000  35.2870000  43.6880000  90.9460000
  36.3270000  42.7740000  91.5580000  42.3090000  37.8410000  93.7910000
  41.7240000  37.4560000  94.4430000  43.0950000  38.0770000  94.2830000
  55.6780000  36.7770000  75.7430000  56.5500000  36.4140000  75.8960000
  55.2530000  36.7510000  76.6010000  60.9640000  31.0000000  70.3790000
  61.4150000  31.8430000  70.3300000  60.0400000  31.2150000  70.2480000
  43.3860000  37.7010000  90.9860000  43.5840000  37.1330000  90.2430000
  43.2930000  38.5740000  90.6030000  50.0260000  86.2380000  75.2600000
  49.9890000  86.6190000  76.1370000  49.5120000  86.8350000  74.7160000
  38.2490000  79.2700000  58.1330000  38.8860000  78.6240000  58.4390000
  37.3990000  78.8930000  58.3590000  81.5290000  85.8640000  56.9400000
  81.4630000  85.6950000  56.0000000  81.6440000  84.9980000  57.3320000
  42.6000000  53.6040000  87.8270000  42.4650000  54.5510000  87.7980000
  43.5510000  53.4970000  87.8190000  53.5240000  47.2700000  60.3030000
  54.0050000  46.5080000  60.6260000  53.8770000  48.0060000  60.8030000
  47.6540000  42.2650000  90.5130000  47.0280000  41.7570000  91.0270000
  48.4540000  42.2640000  91.0390000  87.8300000  55.4390000  93.2840000
  87.8740000  54.6580000  92.7320000  88.2110000  56.1340000  92.7470000
  83.8590000  82.6900000  86.2060000  84.6170000  82.8750000  86.7610000
  84.2350000  82.4390000  85.3620000  75.8510000  86.0300000  61.3070000
  76.2010000  86.7730000  61.7980000  76.6090000  85.4680000  61.1470000
  71.8830000  78.9760000  62.9860000  72.2050000  78.2430000  63.5110000
  71.4950000  78.5640000  62.2130000  85.3040000  61.6380000  89.1510000
  84.5770000  61.0370000  89.3150000  84.8830000  62.4600000  88.8970000
  69.8330000  64.1550000  86.0510000  69.2840000  64.9200000  86.2190000
  70.7270000  64.4650000  86.1950000  88.4970000  81.0040000  75.1620000
  89.0000000  81.3360000  75.9050000  89.0000000  81.2710000  74.3930000
  88.9590000  40.2790000  73.4000000  89.0000000  41.1100000  72.9270000
  88.0230000  40.1190000  73.5230000  70.0160000  59.7610000  65.5350000
  70.0030000  60.0600000  66.4440000  70.6810000  59.0720000  65.5180000
  61.2790000  40.0050000  56.0000000  61.9300000  40.7060000  56.0250000
  60.4400000  40.4530000  56.1090000  77.2360000  61.5290000  92.3420000
  76.3200000  61.7910000  92.4310000  77.6590000  62.2760000  91.9180000
  71.8520000  43.9750000  69.5810000  72.1320000  43.2370000  70.1210000
  72.4590000  43.9740000  68.8400000  60.3720000  45.0890000  60.5820000
  60.1370000  44.1660000  60.4950000  59.5340000  45.5420000  60.6840000
  74.9760000  38.6250000  93.8960000  74.4680000  37.8190000  93.9830000
  75.8660000  38.3290000  93.7070000  81.9950000  81.6930000  91.0550000
  81.7700000  82.3170000  90.3660000  82.9390000  81.5630000  90.9610000
  78.2290000  46.1380000  69.1430000  78.1370000  47.0680000  69.3500000
  77.9620000  46.0690000  68.2260000  67.4970000  67.9470000  80.5190000
  68.3810000  67.7410000  80.8220000  66.9200000  67.5330000  81.1610000
  79.0420000  33.8930000  74.8850000  78.3760000  33.2360000  74.6850000
  79.8560000  33.5200000  74.5460000  55.1190000  62.2010000  77.7540000
  55.9930000  62.5880000  77.8050000  54.5240000  62.9510000  77.7520000
  47.0120000  68.3850000  76.4180000  47.3430000  68.9630000  75.7320000
  47.1120000  67.5030000  76.0580000  71.5380000  72.8820000  56.8380000
  71.9560000  73.7390000  56.7540000  71.0950000  72.7480000  56.0000000
  65.1700000  31.5860000  62.8490000  64.6730000  31.0000000  63.4190000
  65.6580000  31.0000000  62.2700000  67.5810000  81.0030000  93.6550000
  67.7850000  81.8980000  93.9260000  66.6450000  81.0200000  93.4530000
  81.9180000  75.0390000  94.3050000  81.6550000  75.2160000  95.2080000
  81.8300000  74.0900000  94.2110000  54.0940000  64.5760000  69.2800000
  53.3830000  64.8010000  69.8810000  53.6650000  64.0990000  68.5690000
  49.9250000  76.3580000  78.4280000  49.4360000  76.8390000  77.7600000
  50.7560000  76.8280000  78.5020000  43.8000000  60.4220000  68.0360000
  44.4360000  60.2840000  68.7380000  43.6450000  61.3670000  68.0360000
  76.5460000  54.1720000  73.3880000  75.7500000  54.5840000  73.0530000
  76.9450000  54.8400000  73.9470000  88.5620000  47.9810000  87.3380000
  87.9680000  48.4430000  86.7460000  89.0000000  48.6770000  87.8290000
  37.9890000  45.2990000  83.2490000  37.2550000  45.5480000  82.6880000
  38.1630000  46.0780000  83.7770000  74.2000000  66.3100000  63.5720000
  73.7000000  65.5220000  63.3610000  75.0740000  66.1430000  63.2170000
  65.6730000  60.6550000  73.9290000  66.2710000  60.1980000  74.5200000
  65.0720000  61.1220000  74.5100000  54.7070000  77.9740000  83.0860000
  55.0230000  78.3620000  82.2700000  55.4440000  78.0570000  83.6920000
  77.7930000  45.6440000  65.6660000  78.5620000  46.2140000  65.6510000
  78.1520000  44.7570000  65.6350000  56.5870000  70.0000000  91.1130000
  56.7890000  69.4950000  90.3260000  55.6320000  70.0640000  91.1200000
  46.7480000  79.7790000  80.7730000  47.3570000  80.3860000  81.1920000
  46.7190000  79.0240000  81.3610000  38.9360000  61.8220000  87.6770000
  38.1500000  62.2680000  87.9940000  39.5240000  62.5310000  87.4160000
  77.3460000  73.8110000  72.0410000  77.4500000  73.6820000  72.9840000
  78.2370000  73.7670000  71.6930000  62.4330000  83.6170000  85.8800000
  62.1230000  84.4930000  85.6520000  62.3360000  83.1100000  85.0730000
  73.5160000  52.2310000  96.4800000  72.9860000  51.4350000  96.5000000
  74.4210000  51.9170000  96.4810000  36.4980000  69.6050000  59.6240000
  37.0870000  70.3450000  59.4820000  37.0750000  68.8420000  59.6620000
  75.4060000  56.4950000  82.1180000  74.9010000  55.7120000  81.8980000
  74.7970000  57.0410000  82.6160000  61.0440000  63.6560000  95.2470000
  60.5620000  63.2200000  94.5440000  61.0810000  64.5750000  94.9780000
  88.9990000  79.1150000  80.2310000  88.9590000  79.5820000  79.3970000
  88.8670000  79.7930000  80.8930000  79.0310000  38.0180000  83.2250000
  79.9700000  37.8530000  83.1390000  78.6330000  37.1470000  83.2300000
  35.3800000  63.2450000  77.6690000  34.8750000  63.2250000  76.8570000
  35.7880000  64.1110000  77.6770000  47.9230000  80.8820000  71.9030000
  48.7400000  81.3780000  71.8510000  47.2370000  81.5500000  71.9140000
  70.5550000  52.6530000  91.1480000  70.9130000  52.7270000  90.2630000
  69.8740000  53.3250000  91.1880000  62.4540000  62.9710000  75.5060000
  61.9150000  62.5800000  76.1930000  62.2250000  63.9010000  75.5210000
  40.2170000  31.0670000  80.6360000  40.0970000  31.0000000  81.5830000
  41.1640000  31.0150000  80.5100000  60.0930000  72.0170000  95.6540000
  59.5650000  72.1670000  96.4380000  59.5280000  71.5000000  95.0790000
  70.2230000  33.7400000  56.0000000  70.2950000  33.2410000  56.8130000
  70.2300000  34.6560000  56.2800000  43.5190000  48.8390000  63.3590000
  43.2900000  48.3540000  62.5660000  42.7390000  49.3570000  63.5570000
  33.4940000  42.1530000  80.1770000  33.0990000  41.4900000  80.7430000
  33.2530000  41.8840000  79.2900000  53.0550000  42.5070000  80.3540000
  52.7060000  43.1480000  79.7360000  52.2920000  42.2130000  80.8520000
  51.5750000  76.5920000  64.7590000  50.7400000  76.2210000  65.0430000
  52.1110000  75.8310000  64.5310000  88.5000000  86.6630000  84.7370000
  89.0000000  87.1670000  84.0950000  89.0000000  85.8540000  84.8480000
  54.7430000  65.5940000  80.1090000  54.5290000  66.3960000  79.6340000
  54.2050000  64.9190000  79.6950000  70.6450000  56.7620000  85.6440000
  70.5730000  55.9720000  86.1790000  71.4180000  56.6120000  85.0990000
  35.9070000  39.9460000  86.0200000  36.0480000  40.1450000  85.0950000
  36.7600000  40.0940000  86.4300000  78.5700000  44.0740000  84.1550000
  78.0490000  44.7680000  83.7530000  79.2910000  43.9280000  83.5420000
  85.4810000  66.5990000  72.7140000  84.7430000  67.1510000  72.4560000
  86.1530000  66.7730000  72.0540000  31.6940000  85.3290000  58.3940000
  32.5370000  85.6810000  58.1090000  31.8480000  84.3890000  58.4970000
  77.2960000  69.6200000  60.7560000  77.5140000  70.1380000  61.5310000
  76.7510000  68.9070000  61.0900000  53.4880000  52.9860000  96.4830000
  54.0640000  52.2220000  96.5000000  53.6180000  53.3660000  95.6140000
  70.9810000  47.3070000  81.3610000  71.2940000  48.1920000  81.1740000
  71.0780000  47.2130000  82.3080000  60.8570000  85.2150000  74.1330000
  61.1110000  84.3040000  73.9870000  61.6880000  85.6860000  74.2110000
  85.8930000  88.4600000  59.0920000  86.4500000  88.9810000  58.5140000
  85.0890000  88.9740000  59.1770000  68.6830000  39.4390000  75.5890000
  67.9600000  38.8130000  75.5570000  69.4650000  38.9100000  75.4310000
  45.7810000  59.8080000  62.9830000  46.7070000  60.0460000  63.0280000
  45.3150000  60.6060000  63.2320000  67.8250000  43.0280000  72.6380000
  67.7070000  43.8460000  72.1560000  66.9480000  42.6470000  72.6820000
  61.3710000  86.0970000  66.9410000  61.2470000  85.5480000  66.1670000
  60.5160000  86.1020000  67.3710000  49.3820000  49.0560000  58.8000000
  49.0170000  48.8590000  59.6620000  48.6450000  48.9500000  58.1970000
  31.4580000  77.2800000  62.5480000  32.0950000  76.5670000  62.5890000
  31.0000000  77.1450000  61.7180000  44.8120000  48.0190000  89.7260000
  44.7700000  48.9520000  89.9340000  44.6910000  47.9790000  88.7770000
  81.3910000  33.5770000  87.4830000  82.1610000  33.5060000  86.9180000
  80.6530000  33.3730000  86.9080000  43.6430000  89.0000000  87.4710000
  43.2600000  88.7490000  88.3110000  44.4650000  88.5110000  87.4260000
  57.2800000  86.6740000  87.7540000  57.2970000  87.1970000  86.9520000
  57.4560000  85.7800000  87.4610000  88.8310000  59.6680000  94.5920000
  89.0000000  60.4780000  94.1120000  88.9980000  58.9720000  93.9560000
  85.9560000  50.2160000  85.5060000  86.2550000  50.2340000  86.4150000
  86.1820000  49.3380000  85.1960000  75.1410000  53.5460000  88.0640000
  74.8200000  53.3520000  87.1830000  75.3980000  52.6950000  88.4190000
  63.1950000  77.0260000  91.3240000  63.2350000  76.8090000  90.3930000
  63.4670000  77.9430000  91.3680000  79.5600000  56.6700000  78.9170000
  80.4390000  56.9150000  78.6290000  79.0300000  57.4530000  78.7640000
  59.3750000  42.5370000  74.8060000  60.2780000  42.2330000  74.9040000
  59.4520000  43.3760000  74.3510000  63.5040000  40.7630000  75.3810000
  63.2700000  41.5540000  75.8660000  64.2500000  41.0250000  74.8400000
  77.0560000  60.6730000  72.2330000  76.8740000  61.1540000  71.4260000
  77.8410000  61.0900000  72.5890000  35.3590000  82.5030000  61.4940000
  34.6890000  82.9810000  61.9830000  35.8980000  83.1870000  61.0950000
  50.1260000  76.2540000  73.3970000  50.5470000  76.8480000  72.7760000
  49.2390000  76.6010000  73.4960000  63.9480000  88.4140000  82.3990000
  63.7800000  89.0000000  81.6620000  64.0740000  89.0000000  83.1470000
  52.5430000  71.1650000  84.6410000  51.5920000  71.1130000  84.5490000
  52.7140000  72.0850000  84.8440000  67.4910000  49.5410000  93.4600000
  67.0220000  50.3150000  93.1470000  68.4150000  49.7440000  93.3080000
  84.7920000  61.0390000  62.7080000  84.8450000  61.9880000  62.8190000
  83.8780000  60.8750000  62.4780000  74.1740000  45.9220000  86.2580000
  74.7050000  45.5400000  86.9560000  74.1330000  46.8550000  86.4710000
  57.5040000  52.7930000  68.4000000  58.0330000  52.0380000  68.1410000
  56.6220000  52.4400000  68.5150000  61.8240000  74.5810000  86.0030000
  61.6390000  74.8480000  86.9030000  61.8290000  75.4000000  85.5060000
  68.4970000  43.3380000  78.7630000  68.4910000  44.0590000  78.1350000
  67.9020000  42.6880000  78.3880000  37.9380000  35.6910000  75.6540000
  37.0270000  35.4380000  75.8020000  37.9110000  36.2310000  74.8630000
  60.2420000  62.3540000  56.0000000  60.8990000  63.0450000  56.0770000
  60.7100000  61.5500000  56.2270000  44.2820000  59.3440000  87.7500000
  44.8060000  59.6240000  88.5000000  43.7370000  58.6340000  88.0890000
  74.9790000  70.0440000  81.7760000  74.2660000  70.4710000  81.3020000
  74.5400000  69.4890000  82.4210000  38.6860000  69.0130000  67.8970000
  39.1960000  69.1930000  68.6870000  38.5260000  68.0690000  67.9250000
  79.1650000  62.1020000  87.5910000  79.3120000  62.2000000  86.6500000
  79.7940000  62.7000000  87.9950000  66.4820000  70.1790000  90.4830000
  65.8940000  69.6790000  91.0490000  66.5510000  69.6530000  89.6850000
  31.5890000  59.4530000  70.9340000  31.0030000  60.1950000  71.0810000
  31.0040000  58.7060000  70.8090000  51.5360000  47.1160000  57.6820000
  51.4580000  47.8040000  57.0220000  51.5780000  47.5860000  58.5160000
  37.7650000  34.2240000  85.7140000  36.8590000  34.3770000  85.9820000
  38.1640000  35.0940000  85.7120000  60.9120000  81.9500000  67.7190000
  61.0750000  81.2160000  68.3120000  59.9630000  81.9510000  67.5940000
  56.3300000  76.8870000  95.5890000  57.0740000  76.5680000  95.0800000
  56.6210000  76.8330000  96.5000000  62.3250000  83.6870000  68.8310000
  62.9880000  84.0130000  68.2230000  61.5450000  84.2080000  68.6380000
  67.4450000  41.0400000  70.6850000  67.0300000  40.2950000  71.1200000
  68.1300000  40.6500000  70.1420000  44.9620000  35.8950000  92.4530000
  44.0960000  35.6110000  92.1590000  44.8370000  36.1340000  93.3720000
  62.9420000  33.0730000  83.8300000  62.1620000  33.1940000  83.2890000
  62.6400000  33.2320000  84.7250000  70.2650000  62.5400000  71.1700000
  70.8690000  62.5950000  71.9100000  69.5370000  63.1130000  71.4110000
  47.4100000  51.4680000  74.0940000  47.9370000  51.2480000  73.3260000
  47.7150000  50.8670000  74.7750000  50.2990000  40.6360000  61.3010000
  49.4320000  40.4130000  61.6420000  50.6740000  39.7960000  61.0330000
  39.6220000  56.8480000  70.5080000  40.5620000  56.6930000  70.5970000
  39.4400000  56.6930000  69.5810000  39.0210000  54.2880000  71.1190000
  38.0880000  54.4520000  70.9870000  39.0780000  53.9210000  72.0010000
  76.8940000  49.0820000  94.2380000  77.6370000  49.4030000  93.7270000
  76.6220000  49.8330000  94.7650000  56.4530000  34.8310000  70.2790000
  57.0050000  35.4920000  70.6970000  55.6020000  35.2580000  70.1800000
  81.0290000  74.1920000  77.6130000  80.1620000  74.0770000  78.0000000
  81.5690000  73.5200000  78.0310000  64.9040000  83.9680000  83.8870000
  64.3220000  84.4910000  84.4380000  64.3150000  83.4160000  83.3720000
  39.3790000  83.4310000  66.8370000  39.9550000  83.9570000  66.2830000
  38.7190000  84.0490000  67.1520000  44.7870000  63.5680000  91.7810000
  45.5770000  63.1760000  92.1520000  44.5030000  64.2040000  92.4380000
  65.4740000  70.6610000  95.9170000  65.2840000  71.4080000  96.4840000
  65.4410000  69.9020000  96.5000000  38.1200000  49.3770000  95.4240000
  38.1170000  50.1930000  94.9230000  38.3490000  49.6440000  96.3150000
  71.7880000  60.3120000  59.0710000  72.6380000  60.0270000  58.7350000
  71.9670000  61.1480000  59.5010000  61.3370000  76.7270000  70.9030000
  62.0820000  76.1270000  70.8740000  60.5700000  76.1560000  70.9500000
  75.2260000  34.6910000  62.1070000  76.1550000  34.7490000  61.8850000
  75.0770000  33.7610000  62.2780000  88.9580000  53.9450000  71.7850000
  89.0000000  54.8350000  72.1330000  89.0000000  54.0560000  70.8350000
  81.5140000  83.8140000  85.1510000  80.6360000  84.1680000  85.0120000
  82.0310000  84.5640000  85.4450000  39.0680000  50.1790000  92.5640000
  38.1780000  50.2150000  92.2130000  39.3480000  51.0930000  92.6010000
  79.2990000  83.5430000  66.3980000  78.5080000  83.9660000  66.0620000
  78.9770000  82.7770000  66.8740000  44.5300000  66.6670000  76.6170000
  43.7650000  66.0990000  76.7020000  44.9580000  66.6240000  77.4720000
  86.4990000  43.9930000  76.1780000  85.5460000  44.0760000  76.1600000
  86.8190000  44.8960000  76.1550000  69.8880000  65.5410000  80.6930000
  70.1230000  65.4130000  79.7740000  70.0470000  64.6900000  81.1020000
  40.0950000  43.4220000  84.3280000  40.1650000  43.9010000  83.5020000
  41.0010000  43.2460000  84.5820000  51.9540000  82.4190000  94.7240000
  52.7190000  82.6660000  95.2430000  51.2200000  82.4740000  95.3370000
  83.9550000  52.9240000  56.0040000  83.9160000  53.2880000  56.8890000
  83.2950000  52.2310000  56.0000000  73.8010000  58.8980000  56.1040000
  72.9390000  59.3150000  56.0980000  74.4200000  59.6280000  56.1040000
  52.5400000  36.6750000  75.2330000  52.1780000  37.4670000  74.8360000
  53.2820000  36.4440000  74.6740000  59.2780000  34.8180000  82.5200000
  58.8400000  35.5150000  82.0330000  60.1190000  34.7070000  82.0750000
  31.5860000  71.5570000  83.5270000  31.0000000  70.8050000  83.4420000
  31.0000000  72.3130000  83.5770000  88.7760000  71.6590000  78.0930000
  89.0000000  71.1850000  78.8940000  88.8880000  71.0150000  77.3940000
  73.1740000  33.6170000  73.3300000  73.3730000  34.4950000  73.0050000
  73.9540000  33.1010000  73.1230000  88.3010000  34.1140000  93.9080000
  89.0000000  34.4350000  94.4780000  88.7560000  33.7710000  93.1390000
  67.9610000  45.8310000  81.2330000  68.8620000  46.0360000  80.9840000
  67.4270000  46.1870000  80.5230000  49.4430000  88.2670000  89.2880000
  48.9120000  89.0000000  89.5990000  49.6900000  87.7960000  90.0850000
  70.4120000  45.0060000  96.4920000  70.9770000  45.7780000  96.4660000
  71.0180000  44.2650000  96.5000000  36.9590000  88.4170000  90.4660000
  37.5130000  89.0000000  90.9850000  36.4960000  89.0000000  89.8640000
  50.0080000  78.4240000  75.9120000  50.4710000  77.7820000  75.3750000
  50.6450000  78.6820000  76.5790000  31.0000000  48.3890000  86.0390000
  31.0810000  47.9170000  86.8670000  31.0190000  49.3140000  86.2860000
  77.3340000  68.2560000  82.5250000  77.1550000  69.1850000  82.6720000
  76.4700000  67.8430000  82.5190000  42.3770000  88.0040000  58.9100000
  42.3980000  87.1180000  58.5480000  41.4490000  88.1750000  59.0720000
  32.1530000  34.7270000  68.8630000  32.6100000  33.8860000  68.8670000
  31.2240000  34.4950000  68.8530000  86.3640000  55.3240000  64.0100000
  86.6320000  54.6560000  63.3790000  86.0530000  56.0520000  63.4710000
  75.7990000  31.5740000  57.6340000  75.1240000  31.0000000  57.9960000
  76.5530000  31.0000000  57.4960000  74.3140000  83.8460000  64.5960000
  74.6310000  84.2840000  63.8060000  74.9220000  84.1220000  65.2830000
  36.2640000  84.8410000  81.5900000  36.7420000  84.3430000  82.2530000
  35.8680000  85.5660000  82.0740000  66.5710000  86.5730000  61.7620000
  67.3770000  86.2050000  61.4000000  66.5520000  86.2650000  62.6680000
  53.1370000  66.3830000  56.0770000  52.3580000  66.9330000  56.0000000
  53.8500000  66.9990000  56.2500000  88.5860000  31.0000000  75.7400000
  88.9860000  31.1880000  74.8910000  89.0000000  31.6180000  76.3430000
  70.5540000  67.8960000  60.4770000  69.7960000  68.4200000  60.7360000
  70.4310000  67.0580000  60.9220000  46.1410000  46.5320000  95.3030000
  47.0190000  46.7830000  95.5890000  45.8860000  45.8280000  95.9000000
  76.3640000  42.1040000  64.8660000  76.4710000  42.5600000  65.7010000
  75.8210000  41.3440000  65.0760000  64.6430000  37.0970000  79.6560000
  63.8790000  37.1630000  80.2280000  64.8320000  38.0000000  79.4020000
  49.0790000  61.0230000  60.4200000  49.8700000  61.5570000  60.4830000
  48.8400000  60.8400000  61.3290000  40.7860000  39.6150000  58.8120000
  41.3000000  39.6460000  59.6190000  41.2640000  39.0070000  58.2460000
  66.6710000  39.6070000  56.4390000  67.1950000  39.4320000  57.2210000
  66.4650000  40.5400000  56.4920000  71.4600000  34.3530000  78.4210000
  71.3710000  35.0510000  79.0700000  72.4030000  34.1920000  78.3700000
  54.8350000  80.0150000  56.6880000  54.9070000  79.0940000  56.4360000
  54.2820000  80.4060000  56.0110000  51.5840000  63.9250000  75.2080000
  51.2070000  63.7480000  74.3460000  52.0150000  63.1070000  75.4540000
  42.8410000  54.0900000  65.6620000  43.0760000  53.4400000  65.0010000
  42.8010000  53.5960000  66.4810000  44.7690000  53.6930000  56.0010000
  44.0190000  53.1120000  56.1270000  45.5280000  53.1080000  56.0000000
  82.2340000  40.0380000  71.2240000  82.2380000  40.9910000  71.1410000
  82.1970000  39.8800000  72.1680000  85.3700000  46.0260000  86.3060000
  85.4980000  45.2480000  85.7630000  86.2550000  46.3560000  86.4650000
  74.8430000  73.0510000  67.2410000  74.2210000  72.5120000  66.7530000
  74.9670000  73.8280000  66.6950000  83.7470000  81.8280000  63.3040000
  84.4070000  82.1320000  63.9260000  83.0580000  82.4920000  63.3410000
  62.2940000  53.8930000  94.7420000  62.5460000  53.2220000  94.1080000
  62.2800000  54.7070000  94.2370000  75.5980000  58.8420000  58.7590000
  75.9310000  59.4890000  58.1370000  74.9240000  58.3670000  58.2740000
  72.3920000  88.4310000  91.6920000  73.0740000  89.0000000  91.3340000
  71.8860000  89.0000000  92.2730000  83.4210000  64.0310000  62.5840000
  83.0480000  63.4670000  61.9070000  83.0110000  63.7330000  63.3970000
  49.5590000  78.4680000  96.4270000  50.4550000  78.1330000  96.4670000
  49.6550000  79.4180000  96.5000000  59.8060000  69.0740000  95.8900000
  60.4570000  68.5850000  95.3870000  60.3210000  69.6020000  96.5000000
  32.1080000  81.7650000  93.8100000  31.1910000  81.5070000  93.9000000
  32.5920000  80.9380000  93.8090000  72.2860000  76.7390000  56.5830000
  72.7060000  76.1080000  56.0000000  71.7770000  77.3030000  56.0000000
  76.1310000  61.8850000  82.6790000  77.0730000  61.7360000  82.6030000
  75.7540000  61.0080000  82.7530000  65.4460000  58.9380000  81.1960000
  65.4160000  58.0240000  80.9120000  66.1270000  59.3360000  80.6530000
  87.9080000  72.1430000  92.9200000  88.5630000  72.0350000  92.2300000
  88.0670000  73.0210000  93.2660000  82.8240000  57.8460000  71.0860000
  83.4560000  57.2140000  70.7430000  81.9880000  57.5820000  70.7010000
  59.6380000  47.0690000  92.7990000  59.1250000  46.9770000  91.9960000
  59.2580000  46.4290000  93.4010000  47.3150000  44.3030000  94.5280000
  47.6800000  44.1600000  95.4010000  46.4870000  43.8230000  94.5330000
  39.6350000  86.4130000  61.9510000  40.0170000  86.6780000  61.1150000
  38.9120000  87.0260000  62.0900000  79.4710000  51.6030000  69.9590000
  79.1220000  51.0560000  69.2560000  80.0870000  52.1920000  69.5230000
  49.0260000  79.4530000  70.1740000  48.8960000  78.5410000  69.9120000
  49.8110000  79.7280000  69.7000000  43.6400000  36.8250000  69.5570000
  43.7250000  35.8740000  69.6230000  44.5400000  37.1410000  69.4720000
  83.8300000  65.9480000  85.2720000  84.3600000  66.2870000  84.5510000
  83.8780000  66.6260000  85.9460000  34.3150000  53.9200000  78.5220000
  33.4470000  54.1370000  78.1830000  34.9070000  54.0790000  77.7870000
  49.1400000  51.1370000  80.0200000  49.2230000  50.1830000  80.0200000
  48.2190000  51.2970000  80.2280000  54.0090000  72.9680000  69.8670000
  54.7840000  73.5200000  69.9650000  53.4310000  73.2370000  70.5810000
  54.1320000  71.9340000  90.1610000  53.5570000  71.9250000  90.9250000
  53.6070000  72.3370000  89.4690000  52.3830000  85.9140000  73.5270000
  52.7840000  86.2380000  74.3340000  52.0700000  85.0370000  73.7500000
  61.6880000  71.0090000  81.7560000  60.8670000  71.4460000  81.5300000
  61.7640000  70.2980000  81.1190000  71.7130000  83.0720000  68.2740000
  72.4700000  83.2810000  68.8220000  71.0910000  82.6570000  68.8730000
  76.8810000  71.7400000  81.4750000  77.6430000  71.3410000  81.0560000
  76.2820000  71.9320000  80.7530000  56.0520000  49.1380000  63.9940000
  55.2850000  49.7080000  64.0500000  56.6930000  49.6460000  63.4970000
  31.5850000  86.2360000  70.0590000  31.0000000  86.7370000  69.4920000
  31.0000000  85.6900000  70.5860000  50.6570000  39.0330000  72.7510000
  50.3880000  38.1970000  72.3710000  51.6030000  38.9490000  72.8710000
  67.6100000  48.6930000  80.4040000  66.7550000  48.5770000  80.8180000
  67.9550000  49.4990000  80.7880000  61.1860000  62.0000000  72.3070000
  61.6320000  61.2520000  72.7050000  61.4060000  62.7400000  72.8730000
  74.8400000  86.8490000  90.1700000  74.2290000  86.4800000  89.5330000
  75.6370000  86.3280000  90.0670000  43.2680000  61.0220000  65.1640000
  44.0840000  61.5200000  65.2060000  43.5470000  60.1060000  65.1320000
  61.1240000  76.6430000  56.0000000  60.4900000  75.9270000  56.0420000
  60.8900000  77.2150000  56.7320000  80.4810000  73.2490000  57.3980000
  80.2010000  72.4330000  56.9840000  81.3010000  73.0250000  57.8400000
  31.0130000  61.7760000  74.0890000  31.0000000  62.0300000  73.1660000
  31.9060000  61.4660000  74.2410000  84.9930000  31.1050000  58.5490000
  84.8790000  32.0360000  58.3590000  85.9340000  31.0040000  58.6980000
  43.8880000  52.2180000  69.3710000  43.3010000  52.6010000  68.7200000
  43.6870000  51.2820000  69.3540000  39.6810000  75.0540000  96.5000000
  39.7040000  75.9930000  96.3150000  38.7540000  74.8210000  96.4410000
  63.6990000  75.9350000  93.5160000  62.7650000  75.7280000  93.5080000
  63.7410000  76.8460000  93.8080000  83.1180000  86.3380000  72.5780000
  83.6440000  85.5390000  72.6170000  83.7610000  87.0470000  72.5510000
  89.0000000  86.6540000  56.0320000  88.8400000  85.7160000  56.1310000
  88.1260000  87.0450000  56.0000000  42.9000000  55.5260000  70.1970000
  42.5740000  54.7970000  69.6690000  43.5830000  55.1380000  70.7450000
  35.2500000  52.5040000  95.5520000  35.0020000  51.6190000  95.2870000
  35.1140000  52.5180000  96.5000000  47.1590000  82.0600000  78.8160000
  46.2660000  82.3930000  78.9090000  47.0500000  81.1180000  78.6830000
  88.9950000  33.6870000  89.5310000  89.0000000  32.8160000  89.1360000
  88.9070000  33.5250000  90.4710000  53.6240000  33.8890000  71.3400000
  53.6190000  33.5600000  70.4420000  54.0840000  33.2150000  71.8410000
  84.7780000  84.9260000  76.8850000  84.2780000  84.1310000  77.0710000
  85.6610000  84.6130000  76.6860000  83.5850000  36.2850000  67.4200000
  82.9850000  35.7980000  67.9840000  83.4170000  35.9460000  66.5410000
  55.7210000  82.5520000  83.8270000  55.2280000  83.1370000  84.4030000
  56.5800000  82.9650000  83.7430000  85.8760000  77.4620000  61.0080000
  86.3030000  78.2370000  61.3730000  86.5970000  76.9050000  60.7160000
  36.8240000  47.4570000  94.3580000  36.6090000  46.5750000  94.6610000
  37.7020000  47.3750000  93.9860000  69.6910000  66.1050000  90.9800000
  70.4750000  65.5780000  91.1310000  70.0200000  66.9960000  90.8570000
  70.3540000  46.7730000  74.6550000  70.1510000  47.3060000  73.8870000
  69.6670000  46.9880000  75.2850000  87.6240000  81.0900000  64.5960000
  88.4040000  81.4260000  64.1540000  87.1400000  80.6290000  63.9110000
  69.1290000  49.6910000  76.5600000  69.2890000  49.6040000  75.6200000
  68.9530000  48.7980000  76.8570000  80.6020000  61.3770000  89.9560000
  81.4320000  61.2640000  90.4190000  80.1120000  62.0020000  90.4920000
  76.2320000  33.7970000  71.5350000  76.6800000  33.8260000  70.6900000
  75.4530000  34.3390000  71.4120000  70.9180000  53.2330000  71.1010000
  70.0130000  53.2320000  70.7880000  71.0220000  52.3860000  71.5350000
  58.6820000  85.9660000  75.8650000  59.3560000  86.6360000  75.9680000
  57.8550000  86.4450000  75.9270000  43.0700000  62.5420000  78.1940000
  43.4690000  62.8750000  78.9980000  42.9510000  63.3180000  77.6460000
  51.4100000  83.0010000  69.4550000  52.3250000  83.2120000  69.2690000
  51.0700000  83.7770000  69.9010000  74.3450000  51.6700000  56.3960000
  75.1030000  52.1010000  56.0000000  73.5890000  52.1130000  56.0100000
  64.5020000  48.0510000  88.7600000  64.5060000  47.8280000  87.8290000
  63.5860000  47.9660000  89.0230000  84.6370000  70.0640000  62.9700000
  85.4370000  69.7710000  63.4060000  84.0470000  69.3120000  63.0200000
  62.8390000  65.8260000  86.1570000  63.1190000  65.4980000  87.0110000
  63.3940000  65.3640000  85.5290000  80.7720000  35.3870000  65.5690000
  80.9170000  36.0190000  66.2730000  79.8660000  35.5350000  65.2970000
  60.2830000  53.8740000  67.3300000  59.3980000  54.2310000  67.2650000
  60.7720000  54.5320000  67.8240000  53.9510000  86.4290000  56.7200000
  53.0630000  86.4170000  57.0760000  54.2250000  87.3440000  56.7880000
  34.2900000  73.0970000  87.5570000  34.0350000  72.1870000  87.4070000
  33.5530000  73.4760000  88.0370000  71.9170000  59.4150000  63.3660000
  72.0980000  60.2590000  63.7780000  72.4940000  58.7990000  63.8180000
  39.1590000  51.8450000  76.7790000  38.2730000  51.8460000  76.4170000
  39.5840000  52.6030000  76.3770000  67.3220000  33.1710000  61.6090000
  67.2240000  32.9770000  62.5410000  66.4280000  33.1560000  61.2660000
  82.7080000  43.6940000  86.9360000  82.5370000  43.9260000  87.8480000
  83.3320000  44.3540000  86.6330000  65.8410000  80.9370000  79.2590000
  65.9350000  80.1890000  78.6700000  64.9510000  80.8590000  79.6060000
  82.7810000  37.6110000  96.4400000  82.9640000  37.6120000  95.5010000
  81.8300000  37.7070000  96.5000000  51.3540000  64.9190000  59.3580000
  51.1140000  64.0630000  59.7110000  50.5240000  65.3890000  59.2820000
  48.1700000  79.4490000  67.4480000  48.7440000  78.6830000  67.4210000
  48.5710000  80.0700000  66.8400000  54.7100000  42.4860000  95.4730000
  54.1100000  42.1340000  94.8160000  55.4660000  42.7880000  94.9690000
  31.5850000  44.4530000  74.9310000  31.0000000  45.2100000  74.9470000
  31.0040000  43.7030000  74.8080000  86.3970000  41.2660000  75.5940000
  86.4100000  41.8740000  74.8550000  85.5010000  41.3150000  75.9290000
  50.0430000  31.0160000  75.3140000  49.8790000  31.0000000  74.3710000
  49.5250000  31.7540000  75.6350000  37.6520000  70.0830000  62.2180000
  37.0060000  70.7370000  61.9530000  37.1500000  69.4350000  62.7140000
  58.1290000  61.9550000  93.6930000  57.1960000  62.1430000  93.5890000
  58.1780000  60.9990000  93.7300000  70.2760000  38.9870000  68.8560000
  71.1350000  39.1790000  68.4790000  70.1730000  38.0420000  68.7470000
  73.9310000  37.3430000  64.1500000  74.6470000  36.7160000  64.2470000
  73.9260000  37.8310000  64.9730000  63.1860000  78.4080000  96.3910000
  62.8250000  77.5280000  96.5000000  62.4310000  78.9900000  96.4840000
  62.0720000  62.6550000  79.0910000  62.2430000  61.7290000  79.2580000
  61.2380000  62.6640000  78.6200000  52.5890000  68.2270000  64.2190000
  53.5390000  68.2880000  64.3180000  52.2820000  69.1310000  64.2970000
  76.2220000  64.9370000  56.6950000  76.3190000  65.7700000  56.2340000
  76.2010000  64.2790000  56.0000000  46.7060000  43.8400000  71.1350000
  47.5930000  44.1300000  71.3460000  46.1900000  44.6460000  71.1090000
  76.1700000  66.6320000  96.1510000  75.2850000  66.5240000  96.5000000
  76.6340000  65.8410000  96.4240000  69.5200000  78.4510000  67.6370000
  68.6730000  78.0120000  67.5560000  70.1270000  77.7550000  67.8880000
  73.3980000  40.0700000  84.8370000  73.6320000  40.9960000  84.7850000
  72.4400000  40.0640000  84.8280000  43.1740000  84.8530000  65.2050000
  42.5000000  84.4840000  65.7750000  43.9540000  84.9050000  65.7590000
  43.8080000  55.2150000  96.5000000  44.1220000  54.3130000  96.4320000
  44.5980000  55.7500000  96.4240000  42.3590000  72.6410000  74.7420000
  41.6290000  72.1680000  75.1420000  43.1390000  72.2760000  75.1610000
  68.8110000  57.2540000  66.1520000  69.0720000  56.5430000  65.5670000
  69.5030000  57.2870000  66.8130000  86.1400000  44.1940000  87.9370000
  87.0650000  44.4260000  88.0240000  86.1440000  43.3670000  87.4540000
  49.6170000  53.5550000  78.4260000  48.7260000  53.5870000  78.7730000
  49.5060000  53.3490000  77.4980000  71.4430000  58.0010000  68.6180000
  72.1200000  58.3420000  69.2020000  71.4500000  58.5970000  67.8690000
  55.9530000  68.5500000  87.1760000  56.1570000  67.6180000  87.1130000
  55.9080000  68.7230000  88.1170000  79.2770000  83.5900000  93.9500000
  79.4620000  84.4670000  94.2860000  78.3450000  83.6070000  93.7330000
  48.8270000  31.0000000  88.0650000  47.9750000  31.2840000  87.7350000
  49.4280000  31.7020000  87.8140000  33.7310000  47.7810000  85.6060000
  33.0880000  47.0730000  85.6380000  33.4830000  48.3630000  86.3260000
  58.7000000  45.9650000  83.5340000  57.9410000  45.9380000  84.1170000
  59.0490000  46.8510000  83.6350000  48.7580000  54.5110000  93.1410000
  48.6860000  53.6550000  92.7190000  48.3700000  54.3850000  94.0080000
  62.5090000  71.9570000  79.1110000  62.3040000  72.6830000  79.6990000
  62.0940000  72.1950000  78.2820000  51.8960000  46.0400000  78.7050000
  51.6110000  46.4190000  79.5360000  51.9810000  46.7900000  78.1160000
  52.8980000  70.4160000  74.8960000  52.3010000  70.1120000  75.5790000
  53.4710000  69.6680000  74.7270000  53.8780000  73.9950000  87.0610000
  54.1800000  73.0870000  87.0710000  52.9230000  73.9300000  87.0510000
  86.4180000  67.5580000  85.1860000  86.8050000  67.0990000  84.4410000
  86.3990000  66.9060000  85.8870000  62.7850000  44.4370000  60.2310000
  63.5050000  45.0040000  60.5070000  63.1830000  43.5710000  60.1380000
  37.6300000  86.2510000  64.8090000  36.8590000  86.3870000  64.2600000
  37.3610000  85.5830000  65.4400000  51.3260000  51.7430000  75.5560000
  51.5030000  52.5980000  75.9480000  52.1710000  51.2930000  75.5710000
  76.0780000  36.3900000  77.3080000  76.9070000  35.9150000  77.3580000
  75.4100000  35.7300000  77.4950000  81.4220000  82.2960000  82.0160000
  82.2020000  82.2050000  82.5640000  81.6140000  81.7730000  81.2370000
  69.9980000  72.1590000  81.8710000  70.5400000  71.6420000  81.2770000
  69.9500000  71.6340000  82.6710000  67.4160000  78.3180000  83.4530000
  67.7800000  78.7180000  84.2430000  67.8080000  78.8110000  82.7320000
  67.3300000  86.3740000  91.3950000  68.2230000  86.6780000  91.5530000
  66.8000000  86.8390000  92.0440000  33.0530000  53.3280000  72.8750000
  33.4830000  52.4760000  72.9450000  32.3820000  53.3140000  73.5580000
  82.2520000  73.9260000  85.4520000  81.4070000  74.3280000  85.6490000
  82.1090000  73.4580000  84.6290000  76.0630000  44.1410000  70.0640000
  76.9780000  44.1660000  70.3430000  75.9190000  44.9870000  69.6410000
  63.3930000  73.3060000  89.7120000  63.5590000  74.2110000  89.9770000
  63.6990000  73.2610000  88.8060000  79.7560000  59.6940000  92.4350000
  79.1790000  60.0650000  91.7680000  79.2860000  58.9250000  92.7590000
  67.1170000  73.6540000  80.7420000  67.9990000  73.4400000  81.0460000
  66.8240000  72.8660000  80.2830000  31.1380000  85.7580000  64.6980000
  31.1190000  85.0940000  65.3870000  31.6310000  85.3490000  63.9850000
  52.3620000  42.5210000  83.7460000  53.0830000  42.7630000  83.1650000
  52.1750000  41.6070000  83.5270000  75.2210000  68.5470000  92.4560000
  76.0980000  68.8720000  92.2520000  74.7510000  69.3150000  92.7830000
  50.2730000  88.0030000  93.1860000  50.9700000  88.0290000  93.8410000
  49.5220000  87.6310000  93.6490000  72.4080000  41.1290000  60.4610000
  73.2010000  40.6640000  60.7240000  71.7510000  40.4410000  60.3520000
  36.8940000  70.2280000  70.9850000  37.1220000  69.3500000  70.6800000
  37.7370000  70.6670000  71.1050000  56.4870000  74.3280000  96.4990000
  56.2420000  74.2630000  95.5770000  57.4420000  74.2540000  96.5000000
  42.8660000  87.2820000  96.4800000  42.4320000  88.1350000  96.4860000
  43.8000000  87.4880000  96.5000000  42.4910000  76.7000000  70.9270000
  41.8330000  77.3910000  70.8600000  43.3220000  77.1670000  71.0200000
  84.7620000  43.3240000  90.1360000  84.4580000  42.6700000  89.5070000
  84.0610000  43.9750000  90.1630000  34.5820000  44.8780000  88.4680000
  34.0010000  44.1230000  88.5660000  35.4530000  44.4970000  88.3510000
  86.8490000  87.4180000  79.1060000  86.6750000  88.3140000  79.3930000
  85.9860000  87.0610000  78.8950000  50.6960000  80.3380000  87.7390000
  51.2860000  79.9760000  87.0780000  50.3420000  79.5720000  88.1900000
  68.7800000  37.7630000  63.8680000  69.6750000  38.0340000  63.6610000
  68.8060000  37.5420000  64.7990000  44.6240000  79.6300000  71.8630000
  45.0330000  78.9700000  71.3030000  45.3460000  79.9840000  72.3830000
  51.5490000  60.8960000  88.1110000  50.7510000  61.4060000  88.2490000
  52.2390000  61.5520000  88.0090000  35.3050000  51.0510000  60.6900000
  34.9360000  51.9090000  60.4840000  36.2520000  51.1940000  60.7050000
  49.1660000  88.9860000  86.3770000  48.3960000  88.9680000  86.9460000
  49.8060000  88.4290000  86.8200000  62.8550000  57.7960000  81.7680000
  63.4370000  58.1340000  82.4480000  63.2220000  56.9410000  81.5410000
  54.2900000  65.8290000  63.4720000  54.3880000  64.9270000  63.1700000
  53.5210000  66.1570000  63.0050000  56.8480000  54.5210000  66.6010000
  56.4470000  55.3630000  66.3850000  56.1430000  53.8830000  66.4870000
  35.1340000  36.1110000  69.5250000  35.0250000  35.3700000  68.9300000
  34.3870000  36.0530000  70.1210000  39.4010000  77.9820000  86.1170000
  39.3470000  78.6520000  86.7980000  39.9410000  77.2910000  86.5030000
  75.7900000  44.8120000  67.1080000  75.6580000  45.7560000  67.2020000
  74.9620000  44.4240000  67.3910000  73.3560000  71.5510000  79.2200000
  72.8030000  71.7000000  78.4530000  74.1670000  71.1870000  78.8640000
  35.4480000  64.1740000  93.5460000  34.7210000  64.3440000  94.1450000
  35.8740000  65.0240000  93.4370000  46.1620000  67.3910000  70.6660000
  45.8510000  67.7450000  71.4990000  47.0710000  67.6850000  70.6040000
  84.1850000  57.3860000  78.9540000  84.4430000  58.2000000  78.5210000
  83.2330000  57.3560000  78.8610000  48.3210000  87.4470000  64.6500000
  48.5390000  88.3110000  64.3030000  47.9750000  86.9660000  63.8980000
  39.2940000  31.0710000  85.3430000  38.8070000  31.0000000  84.5230000
  38.6900000  31.5060000  85.9450000  33.0820000  73.3220000  64.9450000
  32.8690000  74.1440000  64.5050000  32.7090000  72.6440000  64.3800000
  60.6300000  87.0580000  80.7970000  61.5360000  87.1260000  80.4960000
  60.4490000  86.1170000  80.8040000  46.1790000  84.9510000  83.2440000
  45.7640000  84.8950000  82.3840000  45.8340000  85.7590000  83.6240000
  38.9750000  88.7390000  76.6560000  38.2600000  88.9920000  76.0730000
  39.7690000  89.0000000  76.1890000  45.4170000  73.1640000  75.8000000
  45.4670000  72.2510000  76.0850000  46.1410000  73.2630000  75.1820000
  65.0930000  47.9060000  58.4040000  64.3430000  48.4960000  58.4710000
  65.0620000  47.3860000  59.2070000  80.9670000  85.7200000  67.2250000
  80.1450000  85.8680000  66.7590000  80.7850000  84.9790000  67.8040000
  36.8950000  65.4110000  74.9660000  36.5630000  66.2560000  74.6650000
  36.1210000  64.8490000  75.0070000  49.5570000  70.5950000  73.9580000
  50.4870000  70.8190000  73.9730000  49.4860000  69.8250000  74.5230000
  44.9400000  51.1100000  63.3420000  45.2960000  51.9430000  63.0370000
  44.2020000  51.3550000  63.9020000  42.4590000  62.2400000  62.2920000
  41.6150000  62.1780000  61.8450000  42.9450000  62.9010000  61.7970000
  37.2460000  57.9820000  84.5480000  36.3550000  57.9820000  84.1990000
  37.6030000  58.8340000  84.2950000  37.5080000  40.7140000  96.1930000
  36.5810000  40.5850000  96.3900000  37.9330000  39.9130000  96.5000000
  44.5020000  79.5630000  59.5800000  45.1390000  79.4540000  60.2860000
  44.0000000  78.7480000  59.5800000  50.2640000  72.2650000  69.7890000
  50.7660000  72.9620000  70.2120000  50.9280000  71.6910000  69.4060000
  77.4450000  43.9050000  91.4970000  78.3550000  43.6100000  91.5140000
  76.9540000  43.1530000  91.1640000  80.2210000  31.0630000  74.8300000
  79.7590000  31.0800000  73.9920000  79.5260000  31.0020000  75.4860000
  88.8990000  80.4620000  87.1430000  89.0000000  81.3050000  86.7010000
  88.9990000  79.8120000  86.4470000  65.4470000  62.1650000  90.1640000
  65.4650000  62.2500000  89.2110000  66.2690000  61.7250000  90.3820000
  81.0860000  60.7330000  79.8340000  81.3870000  59.8560000  80.0680000
  80.2640000  60.5880000  79.3650000  71.0330000  46.4510000  69.9460000
  70.7190000  46.3010000  70.8370000  71.2240000  47.3890000  69.9130000
  36.6730000  64.0310000  95.9360000  36.8090000  63.2680000  96.4960000
  36.1850000  64.6470000  96.4840000  47.9480000  45.8270000  66.4740000
  47.6570000  46.4020000  65.7670000  47.3940000  45.0500000  66.3960000
  44.7510000  79.8360000  79.2650000  44.1890000  80.5860000  79.4620000
  44.1740000  79.2140000  78.8210000  63.2240000  60.1320000  61.8820000
  62.4990000  59.6680000  62.3010000  62.8040000  60.7050000  61.2410000
  62.3030000  72.8000000  56.7430000  62.8110000  73.1280000  56.0010000
  62.9450000  72.6910000  57.4440000  31.1540000  67.3070000  64.1870000
  31.6850000  67.2160000  64.9790000  31.0000000  68.2490000  64.1080000
  79.5970000  69.4240000  82.0160000  80.0950000  68.6140000  82.1240000
  79.1950000  69.3440000  81.1500000  86.1570000  72.3190000  73.3220000
  85.9890000  72.2700000  72.3810000  85.3960000  72.7790000  73.6780000
  80.9870000  74.4790000  88.7580000  80.4360000  74.5120000  87.9770000
  80.9840000  75.3760000  89.0920000  37.4980000  48.0610000  60.3750000
  37.6990000  48.0120000  61.3090000  37.5200000  47.1510000  60.0770000
  76.2810000  64.7290000  70.3150000  76.5930000  63.8250000  70.2890000
  77.0780000  65.2590000  70.2900000  65.9880000  31.8820000  90.5560000
  65.7050000  31.0000000  90.3140000  65.1910000  32.4110000  90.5070000
  75.8650000  68.9120000  85.0990000  76.5640000  69.5640000  85.0710000
  76.3220000  68.0710000  85.1160000  61.5300000  64.3200000  63.2980000
  60.8280000  63.7610000  62.9640000  62.3000000  64.0700000  62.7870000
  79.2620000  68.5970000  76.2620000  79.4020000  67.6740000  76.0520000
  78.7430000  68.9320000  75.5300000  74.1100000  62.1450000  84.3920000
  73.5700000  61.6160000  83.8060000  73.4810000  62.6540000  84.9040000
  54.8190000  79.3680000  61.8170000  55.7720000  79.2860000  61.7990000
  54.6170000  79.6330000  62.7150000  51.7190000  41.2010000  67.4250000
  50.8510000  41.3250000  67.8060000  52.3220000  41.5540000  68.0800000
  62.1820000  46.3160000  94.1500000  61.5440000  45.6170000  94.0050000
  61.6520000  47.1020000  94.2800000  79.9120000  31.7810000  90.0490000
  79.9440000  31.0000000  90.6020000  80.7840000  31.8330000  89.6570000
  88.9790000  50.8200000  89.1490000  89.0000000  51.6830000  89.5620000
  88.2970000  50.3440000  89.6240000  67.6830000  69.0910000  67.5990000
  67.1040000  69.7340000  68.0090000  67.0900000  68.4530000  67.2010000
  72.3600000  31.0000000  56.5700000  71.6430000  31.2920000  56.0070000
  73.1290000  31.0020000  56.0000000  67.4170000  56.8930000  58.7540000
  68.1390000  56.2900000  58.5810000  66.9010000  56.8880000  57.9480000
  48.5520000  68.8800000  68.6680000  48.3830000  69.7580000  69.0090000
  47.7010000  68.5780000  68.3490000  34.5040000  31.3020000  90.2010000
  35.3760000  31.0830000  89.8720000  34.4510000  32.2550000  90.1240000
  37.3310000  68.2030000  88.8990000  37.2210000  68.6200000  89.7530000
  38.2400000  68.3840000  88.6590000  55.0870000  33.4550000  56.0000000
  55.5580000  33.0520000  56.7290000  54.1850000  33.5370000  56.3130000
  88.3750000  69.2160000  96.5000000  88.9300000  68.4510000  96.3500000
  87.5520000  69.0060000  96.0580000  32.0200000  71.5470000  79.6850000
  32.0990000  72.0000000  78.8460000  32.9190000  71.3110000  79.9160000
  81.0140000  87.7660000  94.3690000  80.4480000  86.9950000  94.3380000
  80.5310000  88.3980000  94.9020000  46.7130000  53.9990000  89.0280000
  45.9250000  53.6940000  88.5780000  47.0620000  54.6860000  88.4590000
  53.0910000  49.7210000  59.1620000  53.5910000  50.3740000  59.6500000
  53.6370000  49.5170000  58.4030000  82.9300000  78.2990000  59.4320000
  82.8000000  78.6180000  58.5390000  83.3040000  79.0450000  59.9010000
  58.3400000  84.7650000  84.5340000  58.9100000  85.3460000  85.0370000
  57.4590000  85.1110000  84.6770000  63.3770000  86.6850000  61.3760000
  63.6490000  85.9960000  60.7700000  64.0890000  86.7370000  62.0150000
  54.1260000  85.9140000  95.5470000  54.9820000  85.5560000  95.3120000
  54.1550000  86.0010000  96.5000000  55.4100000  65.1330000  84.1990000
  54.6600000  65.1020000  83.6060000  55.9830000  65.8040000  83.8270000
  33.6230000  77.2710000  79.0300000  33.0340000  77.3240000  79.7830000
  33.7980000  78.1840000  78.7980000  39.6880000  69.7920000  74.1550000
  39.0330000  69.7520000  73.4590000  40.4810000  69.4290000  73.7590000
  44.4020000  41.1090000  72.5430000  45.1380000  40.6010000  72.2010000
  43.7070000  40.4640000  72.6770000  88.3980000  78.5220000  65.5700000
  88.9930000  78.7930000  64.8710000  88.9730000  78.1660000  66.2480000
  88.5970000  84.5800000  86.9620000  88.9850000  83.8010000  86.5650000
  88.7220000  84.4580000  87.9030000  62.0830000  81.8530000  72.3380000
  61.3830000  81.2900000  72.6670000  62.1780000  81.6050000  71.4180000
  46.1260000  61.2690000  70.5760000  46.0390000  60.5160000  71.1590000
  46.8460000  61.0380000  69.9890000  85.9140000  76.1930000  91.6600000
  85.9950000  75.8060000  90.7880000  86.6820000  75.8750000  92.1360000
  74.8270000  70.8680000  75.9160000  75.4380000  70.7080000  76.6350000
  74.0530000  71.2410000  76.3370000  73.8910000  48.3780000  79.1270000
  73.1160000  47.9420000  79.4800000  73.6440000  49.3010000  79.0740000
  36.6640000  46.9530000  72.0760000  36.8630000  47.8680000  72.2720000
  36.1840000  46.6420000  72.8440000  80.6950000  69.9380000  61.4500000
  80.3950000  69.4290000  60.6970000  81.1930000  70.6610000  61.0690000
  68.3030000  40.5400000  80.7500000  69.0340000  40.1190000  81.2020000
  68.6790000  40.8570000  79.9280000  70.8480000  34.9970000  92.1040000
  70.5060000  34.6570000  91.2770000  70.1650000  34.8000000  92.7450000
  76.3140000  47.2950000  91.1720000  76.9050000  47.8620000  91.6670000
  76.5330000  46.4090000  91.4620000  78.9320000  88.2150000  78.7480000
  79.6030000  88.2910000  78.0700000  79.0450000  88.9980000  79.2870000
  39.7580000  66.7370000  82.8900000  38.8730000  67.0980000  82.8360000
  40.2380000  67.3570000  83.4390000  52.2220000  62.3110000  85.1900000
  52.9160000  62.9670000  85.1250000  52.6580000  61.5350000  85.5450000
  88.9100000  65.5320000  71.4780000  88.9990000  66.4350000  71.7800000
  88.3410000  65.1160000  72.1270000  46.2700000  71.1870000  78.8410000
  45.7350000  70.4090000  78.9970000  46.6220000  71.0630000  77.9590000
  70.5540000  78.5310000  89.8870000  71.5080000  78.5040000  89.8160000
  70.2480000  78.6400000  88.9860000  46.3320000  84.4420000  92.4170000
  45.9950000  83.6280000  92.0440000  46.5820000  84.9690000  91.6570000
  82.0820000  40.5960000  58.3030000  81.5740000  39.8270000  58.0450000
  82.9690000  40.2640000  58.4390000  67.5220000  38.4690000  60.6320000
  67.6380000  37.6680000  61.1430000  67.4980000  38.1710000  59.7220000
  53.2530000  31.1480000  56.5690000  54.0110000  31.0000000  56.0030000
  52.4970000  31.0010000  56.0000000  81.9260000  86.9700000  92.1810000
  81.9900000  86.8460000  91.2340000  82.5100000  87.7060000  92.3670000
  80.6530000  58.7640000  64.5300000  81.2480000  58.5230000  63.8200000
  79.8340000  58.3160000  64.3190000  38.7530000  36.3550000  96.5000000
  39.1760000  35.4970000  96.4980000  39.4790000  36.9800000  96.4920000
  78.3150000  38.8150000  77.5200000  78.2660000  39.2700000  78.3610000
  77.4250000  38.4960000  77.3680000  46.9660000  50.0740000  56.5780000
  47.3290000  50.7470000  56.0010000  46.8080000  49.3250000  56.0030000
  74.6810000  48.2650000  57.0440000  74.0660000  48.8550000  56.6090000
  75.0670000  47.7540000  56.3330000  46.2720000  83.6990000  72.7510000
  46.9060000  84.0070000  73.3980000  46.0760000  84.4730000  72.2210000
  33.3620000  34.2310000  65.0440000  33.8730000  34.4630000  65.8200000
  33.9520000  33.6850000  64.5230000  72.8580000  76.6570000  83.5570000
  73.2760000  76.0190000  82.9790000  72.1550000  77.0340000  83.0290000
  83.2970000  60.6950000  70.8440000  83.1120000  60.1240000  70.0980000
  82.4350000  60.9110000  71.2000000  78.6620000  84.7960000  78.1170000
  79.5290000  85.1260000  78.3540000  78.1220000  85.5820000  78.0330000
  37.4820000  52.5350000  89.2610000  37.8530000  52.4370000  90.1380000
  36.5520000  52.3360000  89.3700000  62.6720000  71.5490000  85.7490000
  63.5290000  71.1360000  85.8540000  62.0960000  70.8380000  85.4660000
  50.7870000  69.7600000  67.0410000  50.8080000  70.0320000  66.1230000
  50.5010000  68.8470000  67.0150000  66.2920000  47.0960000  70.1050000
  66.3650000  48.0090000  69.8270000  65.9260000  47.1420000  70.9890000
  32.7540000  54.1040000  59.2430000  32.2600000  54.4520000  59.9840000
  32.9610000  53.2030000  59.4940000  43.7960000  44.8560000  89.4190000
  44.0100000  45.0540000  90.3300000  43.6620000  45.7130000  89.0120000
  69.6210000  41.1960000  77.1720000  70.3330000  40.5620000  77.0940000
  70.0600000  42.0360000  77.3090000  50.6070000  34.9940000  88.8850000
  51.3600000  34.5230000  89.2400000  49.9930000  34.3050000  88.6280000
  36.0070000  84.5230000  78.7470000  36.6540000  84.0360000  79.2560000
  35.1620000  84.2290000  79.0900000  37.3140000  62.2250000  79.7800000
  36.9520000  63.1090000  79.8340000  36.5670000  61.6750000  79.5410000
  46.5570000  69.7100000  72.9010000  46.5100000  70.1180000  72.0360000
  47.1160000  70.2950000  73.4130000  52.7570000  48.7090000  84.2250000
  53.1050000  48.6710000  85.1150000  53.1970000  47.9930000  83.7650000
  49.4260000  82.7520000  62.3820000  50.1740000  82.9050000  61.8060000
  48.7380000  82.4260000  61.8010000  46.3050000  44.6550000  76.5000000
  45.5940000  44.0150000  76.4570000  47.0990000  44.1260000  76.5850000
  57.6770000  65.0210000  63.1590000  58.2500000  64.6140000  63.8080000
  56.8410000  65.1310000  63.6120000  56.8230000  31.7110000  93.2880000
  56.1350000  31.1420000  93.6340000  56.3810000  32.2510000  92.6330000
  82.9800000  67.8270000  82.9040000  82.6140000  67.9100000  83.7840000
  82.6660000  68.6030000  82.4390000  85.5930000  86.4480000  62.0740000
  85.6280000  86.6790000  61.1460000  86.4920000  86.2010000  62.2940000
  77.0980000  55.8450000  79.8880000  77.5880000  55.0660000  79.6270000
  76.1820000  55.6180000  79.7260000  55.2980000  66.0390000  67.4370000
  55.0470000  66.3790000  66.5780000  54.8630000  66.6190000  68.0620000
  68.1400000  33.2450000  59.2480000  68.8810000  32.8070000  58.8280000
  67.6280000  33.5990000  58.5200000  48.8900000  61.9020000  86.5200000
  49.5600000  61.4040000  86.0500000  49.2270000  62.7980000  86.5400000
  55.3190000  43.6090000  78.9980000  55.4240000  42.9620000  79.6950000
  55.4520000  43.1140000  78.1890000  43.9840000  47.0200000  56.0060000
  44.2200000  47.9480000  56.0070000  43.0260000  47.0160000  56.0000000
  70.7110000  46.6630000  59.6570000  71.2050000  47.3010000  59.1430000
  71.3730000  46.2210000  60.1900000  31.0460000  31.3490000  77.5260000
  31.0000000  31.0000000  78.4160000  31.9800000  31.4970000  77.3740000
  44.9390000  43.9860000  58.5210000  44.9580000  44.3650000  59.4000000
  45.8450000  44.0400000  58.2160000  54.4200000  59.4810000  89.6300000
  55.1810000  59.9500000  89.2880000  53.6840000  60.0740000  89.4750000
  33.8820000  71.1140000  89.6600000  34.8100000  70.8800000  89.6850000
  33.5120000  70.7150000  90.4480000  85.0450000  60.8190000  72.6510000
  84.3690000  60.3060000  73.0940000  85.2680000  61.5110000  73.2750000
  31.0000000  85.1770000  94.1270000  31.0090000  84.2250000  94.0290000
  31.0160000  85.3220000  95.0730000  59.1010000  56.4080000  86.0990000
  58.3930000  57.0460000  86.1850000  59.8790000  56.9360000  85.9150000
  37.1430000  41.2690000  75.3140000  36.8600000  42.1770000  75.4210000
  37.8580000  41.3140000  74.6780000  73.4580000  39.5610000  77.9830000
  74.3040000  39.9390000  78.2220000  73.1000000  39.2340000  78.8090000
  46.6550000  31.0090000  80.4800000  45.8380000  31.0600000  79.9860000
  46.3810000  31.0000000  81.3980000  76.0560000  50.0580000  80.0180000
  75.4500000  50.4710000  80.6320000  76.0090000  49.1240000  80.2260000
  83.7330000  38.8140000  75.4440000  83.7870000  39.6790000  75.0370000
  83.8960000  38.2010000  74.7260000  42.8840000  31.5860000  59.7210000
  43.6410000  31.0000000  59.7150000  42.1270000  31.0000000  59.7150000
  65.4070000  58.4020000  91.1710000  65.9320000  59.0920000  91.5760000
  65.8890000  57.5950000  91.3530000  60.6190000  77.4700000  76.9820000
  60.9490000  76.5780000  76.8790000  59.6720000  77.3910000  76.8650000
  35.4840000  67.6720000  56.0320000  35.8650000  68.5500000  56.0230000
  34.5390000  67.8200000  56.0000000  33.6960000  77.5330000  94.0850000
  33.1690000  77.9220000  93.3880000  34.0460000  76.7280000  93.7010000
  41.4060000  89.0000000  61.6010000  40.7380000  88.9410000  62.2830000
  41.9940000  88.2640000  61.7760000  38.0730000  41.8490000  83.7920000
  37.2800000  42.3020000  84.0800000  38.3190000  42.2910000  82.9790000
  74.0880000  59.2840000  93.7160000  74.1940000  58.4930000  94.2450000
  74.8670000  59.8070000  93.9070000  84.7480000  66.3290000  62.8640000
  83.9680000  66.8410000  62.6490000  85.4150000  66.9840000  63.0730000
  61.5470000  47.4770000  72.1340000  60.6700000  47.7330000  71.8490000
  61.4920000  47.4580000  73.0900000  70.2720000  63.6820000  96.2980000
  70.6420000  62.8260000  96.0850000  69.3530000  63.5030000  96.5000000
  58.0110000  33.3090000  58.8470000  57.5940000  33.9250000  58.2460000
  57.3570000  33.1580000  59.5300000  58.6380000  74.7300000  82.0500000
  59.0370000  73.8720000  82.1920000  57.8600000  74.5480000  81.5230000
  36.9210000  55.9060000  93.5670000  36.0860000  56.0010000  94.0250000
  37.5800000  55.9460000  94.2610000  49.2560000  86.6890000  95.9500000
  49.9370000  87.3450000  96.0980000  48.4380000  87.1430000  96.1550000
  86.8350000  62.9920000  93.9860000  87.4560000  63.6330000  94.3310000
  86.9030000  62.2470000  94.5840000  70.7710000  65.0200000  68.7730000
  69.9420000  65.4930000  68.8450000  70.7900000  64.4520000  69.5440000
  59.7320000  72.3200000  73.3160000  60.5900000  72.0340000  73.6300000
  59.2050000  71.5200000  73.2940000  57.6370000  83.5480000  75.6950000
  58.0950000  83.5860000  76.5340000  56.9950000  82.8460000  75.8030000
  81.3980000  39.1340000  61.2050000  80.7430000  39.0780000  60.5100000
  81.9270000  39.8980000  60.9750000  46.7810000  86.6300000  94.3320000
  45.8780000  86.3170000  94.3870000  47.3070000  85.8340000  94.2510000
  67.9590000  43.1220000  91.7200000  67.1630000  43.6470000  91.6340000
  68.4030000  43.4820000  92.4870000  58.0460000  57.8070000  94.0440000
  58.5430000  58.5750000  94.3250000  57.1430000  57.9990000  94.3000000
  73.1820000  36.2630000  87.2530000  73.0920000  36.9620000  86.6050000
  73.2280000  35.4590000  86.7340000  60.6140000  65.5840000  74.6120000
  59.9440000  65.4520000  75.2820000  60.8820000  66.4970000  74.7170000
  87.3630000  81.3170000  58.4640000  86.7830000  82.0780000  58.4590000
  86.7740000  80.5680000  58.5570000  42.7930000  51.9910000  92.3140000
  43.4630000  51.3090000  92.2890000  41.9670000  51.5140000  92.4000000
  56.6720000  68.4380000  72.9830000  56.0970000  67.6810000  73.0960000
  57.2030000  68.4580000  73.7800000  78.3900000  68.9450000  71.6370000
  78.6200000  69.1810000  72.5350000  77.6660000  69.5290000  71.4120000
  69.8480000  50.4530000  83.0300000  70.0080000  51.3870000  82.8990000
  69.9650000  50.0650000  82.1630000  65.4920000  36.6170000  72.9130000
  64.9970000  35.8450000  72.6400000  65.8900000  36.3650000  73.7470000
  85.9880000  63.5580000  85.5780000  85.7880000  63.3910000  86.4990000
  85.8590000  64.5010000  85.4720000  37.5770000  44.7740000  86.5280000
  38.2250000  45.4410000  86.7520000  37.9820000  44.2740000  85.8180000
  50.6340000  50.7990000  84.9270000  51.2260000  50.2810000  85.4730000
  51.2140000  51.3590000  84.4100000  69.5070000  71.4170000  72.4030000
  70.4280000  71.6130000  72.2340000  69.4600000  70.4600000  72.3990000
  53.2180000  48.6550000  66.0950000  53.5950000  49.1170000  66.8440000
  52.3580000  48.3650000  66.4020000  46.2230000  59.0220000  66.2780000
  45.4460000  58.9730000  66.8350000  45.9540000  59.5670000  65.5380000
  50.8390000  47.0100000  69.8790000  50.2780000  46.2820000  70.1460000
  51.0770000  47.4430000  70.6990000  31.0000000  63.5130000  80.2680000
  31.0540000  62.5990000  79.9910000  31.0140000  63.4760000  81.2250000
  43.3860000  58.1700000  56.6540000  43.5980000  57.5430000  57.3440000
  43.8900000  58.9530000  56.8780000  89.0000000  47.3280000  58.0810000
  88.9130000  46.4040000  58.3140000  88.8210000  47.7990000  58.8960000
  48.2490000  55.7800000  90.9980000  48.5190000  55.0190000  90.4840000
  47.2940000  55.7880000  90.9310000  34.9910000  57.8180000  66.9570000
  35.2320000  57.0660000  66.4170000  34.2620000  57.5050000  67.4930000
  33.4900000  81.5060000  86.7060000  33.3500000  82.3190000  87.1900000
  34.3010000  81.6530000  86.2190000  44.8050000  86.7830000  69.9040000
  44.3080000  86.7420000  70.7200000  45.5790000  86.2430000  70.0670000
  73.8420000  36.6440000  60.6160000  73.5710000  37.4950000  60.9590000
  74.6430000  36.8270000  60.1240000  35.8870000  42.6300000  78.1660000
  36.5690000  41.9900000  77.9630000  36.0640000  42.8910000  79.0700000
  66.5210000  31.1340000  70.7750000  66.1280000  31.3520000  71.6200000
  67.1550000  31.8330000  70.6170000  69.5990000  89.0000000  79.4870000
  69.3390000  88.1110000  79.2450000  70.5210000  88.9220000  79.7340000
  78.2650000  84.9440000  88.0480000  77.9580000  84.0420000  88.1420000
  79.2170000  84.8670000  87.9790000  84.6950000  87.5640000  81.1180000
  84.2830000  86.7750000  80.7670000  85.5700000  87.2800000  81.3830000
  88.8300000  87.0180000  95.5840000  88.9820000  87.9630000  95.5780000
  88.9580000  86.7600000  96.4980000  70.0720000  80.5640000  56.0410000
  70.5610000  81.3860000  56.0000000  70.7460000  79.8870000  56.1060000
  60.2340000  83.9650000  90.8060000  59.3040000  84.1870000  90.7620000
  60.5570000  84.4360000  91.5740000  62.2850000  56.2370000  96.4940000
  62.7870000  57.0510000  96.4850000  62.9490000  55.5460000  96.5000000
  71.2160000  34.4990000  82.5760000  71.1260000  35.0660000  81.8110000
  70.3530000  34.5170000  82.9920000  76.8980000  76.8900000  84.8000000
  76.0210000  77.0250000  84.4420000  77.0420000  75.9450000  84.7340000
  76.6040000  64.4010000  94.0460000  76.5310000  63.8970000  94.8560000
  77.4050000  64.0770000  93.6330000  85.7550000  31.7100000  80.7460000
  86.3880000  31.0000000  80.6400000  86.2860000  32.4740000  80.9720000
  38.9570000  67.2010000  56.1620000  39.4990000  66.4290000  56.0000000
  38.1640000  66.8550000  56.5730000  47.5000000  75.7490000  75.8450000
  47.8280000  75.2600000  75.0910000  47.8550000  75.2860000  76.6040000
  33.8300000  66.3960000  59.2930000  33.0460000  66.3050000  59.8340000
  34.4450000  65.7570000  59.6510000  83.4710000  41.4790000  93.0970000
  83.0760000  42.2150000  93.5640000  82.7580000  41.1220000  92.5660000
  54.3600000  58.1370000  75.4080000  53.4140000  58.0980000  75.5440000
  54.5950000  57.2610000  75.1010000  86.5340000  37.1190000  75.4300000
  86.3460000  38.0260000  75.1910000  85.8530000  36.8920000  76.0640000
  56.7200000  61.7600000  62.8560000  57.4090000  61.3430000  63.3740000
  56.7590000  62.6840000  63.1030000  61.3680000  78.9770000  90.0170000
  60.5290000  79.4090000  89.8580000  61.1380000  78.1680000  90.4750000
  60.3800000  81.0630000  76.2710000  60.0520000  80.2220000  76.5870000
  59.6020000  81.6180000  76.2130000  52.5750000  53.4280000  70.9130000
  52.6690000  52.4880000  70.7630000  53.4270000  53.7960000  70.6750000
  35.7710000  86.1430000  95.2240000  35.0280000  86.4620000  94.7120000
  36.3350000  85.7100000  94.5830000  85.0080000  59.5280000  64.6880000
  85.8220000  59.0250000  64.7050000  84.3180000  58.8670000  64.6360000
  76.9280000  41.2990000  85.6310000  77.4250000  42.1160000  85.6270000
  76.0110000  41.5760000  85.6350000  46.3330000  70.5580000  57.5410000
  46.6160000  69.6440000  57.5640000  47.1410000  71.0610000  57.6490000
  57.2640000  38.4070000  66.2260000  56.7340000  37.8840000  65.6250000
  57.4220000  39.2260000  65.7570000  57.1400000  85.3140000  70.4230000
  57.7750000  85.7790000  69.8780000  57.3640000  84.3890000  70.3150000
  74.6200000  73.7950000  80.6300000  74.6520000  74.7510000  80.5910000
  73.6860000  73.5860000  80.6340000  44.0940000  67.7760000  58.5360000
  44.9840000  67.4590000  58.3830000  44.1680000  68.3380000  59.3080000
  65.4960000  36.3630000  58.2430000  66.0850000  35.6390000  58.4560000
  66.0770000  37.0740000  57.9730000  47.8780000  35.4910000  95.2510000
  47.3500000  35.4570000  94.4540000  48.7640000  35.6850000  94.9440000
  49.9390000  43.6300000  66.1830000  49.7110000  44.2560000  65.4960000
  50.5630000  43.0350000  65.7670000  38.3260000  40.2440000  90.0970000
  38.5580000  39.9920000  90.9900000  37.4440000  40.6110000  90.1730000
  34.1360000  82.2360000  69.4740000  35.0480000  82.0120000  69.6600000
  34.0510000  83.1480000  69.7520000  88.9190000  55.2840000  90.2950000
  89.0000000  54.3580000  90.5210000  87.9800000  55.4630000  90.3500000
  31.0080000  41.6280000  76.5290000  31.0000000  40.8670000  77.1090000
  31.7080000  41.4450000  75.9020000  89.0000000  67.6450000  76.6000000
  88.5740000  68.4890000  76.4540000  88.7270000  67.3880000  77.4810000
  36.2320000  69.8370000  67.7940000  36.5940000  70.0180000  66.9270000
  36.6910000  70.4410000  68.3780000  83.8590000  61.0260000  94.7250000
  84.4850000  61.6520000  94.3600000  83.9940000  60.2270000  94.2150000
  55.1160000  64.8570000  56.0000000  56.0580000  64.6990000  56.0470000
  54.7230000  63.9860000  56.0600000  58.8050000  73.5150000  79.3640000
  58.1510000  72.8170000  79.3710000  59.6460000  73.0560000  79.3620000
  34.6440000  88.0490000  59.5810000  35.2990000  87.6270000  59.0240000
  34.7190000  88.9810000  59.3750000  38.4020000  63.4580000  77.0720000
  38.4260000  64.4120000  77.1400000  37.9900000  63.2880000  76.2240000
  71.7480000  31.5870000  59.0760000  71.0180000  31.0010000  58.8740000
  72.4630000  31.0010000  59.3270000  80.6320000  42.8810000  73.5670000
  81.0150000  42.0280000  73.3600000  79.7040000  42.6960000  73.7180000
  69.8580000  76.4400000  72.6130000  69.4450000  75.5890000  72.4710000
  69.3190000  76.8590000  73.2840000  65.6950000  37.6710000  91.9150000
  64.8260000  37.9600000  92.1940000  65.9980000  38.3590000  91.3220000
  87.2250000  31.9100000  70.1160000  86.3980000  32.3900000  70.0850000
  86.9700000  31.0000000  70.2670000  72.0510000  33.3990000  71.0170000
  72.6580000  32.6590000  71.0310000  71.7720000  33.4630000  70.1030000
  77.7510000  66.2200000  91.2810000  78.0450000  67.1310000  91.2950000
  76.7950000  66.2760000  91.3000000  42.7300000  86.8690000  67.8330000
  43.4060000  86.1960000  67.9160000  42.5860000  86.9490000  66.8900000
  45.2980000  42.1190000  87.9020000  45.1790000  42.8490000  88.5100000
  45.6060000  41.3980000  88.4510000  86.5860000  88.8500000  92.9470000
  85.6300000  88.8850000  92.9220000  86.8080000  88.9890000  93.8680000
  64.8720000  86.7170000  67.4450000  64.5750000  85.8100000  67.5150000
  64.1300000  87.1840000  67.0610000  64.3610000  64.5990000  66.4580000
  63.8770000  64.7690000  67.2670000  63.8430000  65.0250000  65.7750000
  65.1390000  83.8590000  80.7340000  65.0390000  83.4210000  79.8890000
  65.8660000  83.4000000  81.1570000  52.9710000  60.5170000  59.0960000
  52.7760000  60.7160000  60.0120000  53.8860000  60.2350000  59.1010000
  65.0790000  40.7510000  89.4940000  64.6080000  40.2940000  90.1910000
  64.9450000  41.6800000  89.6840000  86.0650000  58.3510000  94.2250000
  86.7600000  57.7300000  94.0120000  85.8330000  58.7500000  93.3860000
  36.7550000  80.8720000  81.6000000  36.6430000  80.0170000  81.1860000
  36.4650000  80.7410000  82.5040000  46.6790000  41.5620000  74.4940000
  45.8240000  41.9900000  74.5120000  47.3090000  42.2830000  74.4870000
  43.9450000  39.3080000  61.0910000  43.9360000  39.9940000  60.4240000
  43.2870000  38.6780000  60.7960000  57.5760000  44.6800000  73.3360000
  56.6380000  44.4910000  73.3490000  57.6290000  45.6360000  73.3410000
  48.6540000  82.4000000  67.7420000  48.9420000  83.0750000  67.1270000
  49.1040000  82.6130000  68.5600000  31.0000000  47.8390000  76.8190000
  31.0200000  47.8840000  75.8630000  31.0200000  48.7530000  77.1030000
  60.4890000  66.2880000  56.0910000  59.8300000  66.9750000  56.0000000
  60.0970000  65.6570000  56.6960000  40.8070000  84.7120000  81.0120000
  40.4470000  85.4640000  81.4810000  40.1710000  84.0110000  81.1570000
  41.2900000  37.7310000  85.3510000  41.0910000  36.8700000  85.7180000
  42.2300000  37.7020000  85.1680000  84.9390000  69.5840000  82.0230000
  85.6590000  69.8740000  81.4640000  85.2450000  68.7590000  82.4020000
  75.6730000  38.2820000  56.0000000  74.8790000  37.7530000  56.0650000
  75.3620000  39.1870000  56.0400000  76.0490000  84.7720000  58.8130000
  76.2750000  83.8970000  59.1280000  75.1000000  84.7430000  58.6850000
  57.7860000  78.7920000  56.1890000  57.4290000  77.9250000  56.0000000
  58.7280000  78.7000000  56.0480000  36.7900000  36.2770000  93.7530000
  36.7490000  35.3320000  93.9030000  37.4240000  36.5940000  94.3960000
  60.8760000  33.3860000  95.6200000  60.0280000  33.6350000  95.9860000
  61.4060000  33.1480000  96.3810000  72.6390000  73.1160000  83.4600000
  73.4340000  73.5280000  83.1210000  72.3650000  72.5170000  82.7650000
  67.8020000  31.5630000  96.5000000  68.1800000  32.4420000  96.4970000
  68.4990000  31.0000000  96.1610000  62.5150000  78.1340000  79.5110000
  62.4980000  77.3870000  78.9130000  63.4440000  78.2740000  79.6950000
  72.9320000  64.4260000  81.8810000  73.5370000  63.8800000  82.3830000
  72.9740000  64.0760000  80.9910000  88.9780000  75.8040000  63.7610000
  89.0000000  76.3100000  64.5730000  89.0000000  76.4630000  63.0670000
  31.8300000  82.2110000  75.9360000  31.9970000  82.4530000  75.0250000
  32.5350000  81.6020000  76.1550000  51.0630000  42.9210000  70.5540000
  50.2650000  42.3970000  70.6190000  51.0870000  43.2110000  69.6420000
  88.7090000  31.0890000  60.2330000  89.0000000  31.0000000  61.1400000
  88.9720000  31.9750000  59.9820000  38.2350000  75.6670000  64.4970000
  38.1840000  74.7370000  64.7190000  38.0750000  75.6970000  63.5530000
  46.1530000  45.9680000  89.0390000  46.3400000  45.0300000  89.0060000
  46.7110000  46.3000000  89.7430000  79.2170000  49.1260000  80.8920000
  80.0900000  48.7360000  80.8460000  79.0890000  49.3190000  81.8210000
  61.5020000  70.1120000  90.4040000  62.1220000  70.7930000  90.6670000
  61.8750000  69.3010000  90.7510000  86.5050000  73.4770000  87.4940000
  86.9780000  73.3550000  86.6710000  86.7320000  72.7070000  88.0170000
  51.3020000  73.5310000  82.6950000  51.7530000  74.2560000  82.2630000
  50.8960000  73.0410000  81.9800000  56.6910000  35.5550000  56.5790000
  56.1700000  36.1110000  56.0000000  57.3840000  35.2060000  56.0180000
  66.6150000  58.3880000  68.1040000  66.3670000  58.8450000  68.9080000
  66.3920000  59.0000000  67.4020000  67.6070000  48.4730000  90.2700000
  67.0590000  48.6300000  91.0390000  67.1510000  48.9170000  89.5550000
  42.5000000  54.9640000  59.7010000  43.1220000  55.3170000  59.0650000
  43.0480000  54.6350000  60.4140000  39.0230000  69.3650000  81.1000000
  39.4720000  70.0820000  81.5470000  39.7290000  68.7980000  80.7860000
  88.0730000  36.4510000  79.7510000  87.6980000  36.8290000  78.9560000
  88.9960000  36.7050000  79.7250000  86.4110000  37.0830000  94.3840000
  86.8040000  37.9530000  94.4360000  85.4780000  37.2490000  94.2460000
  65.3860000  64.3450000  75.2090000  64.5700000  64.3570000  74.7090000
  65.5510000  63.4170000  75.3770000  58.7900000  66.6830000  73.0160000
  58.3980000  66.8200000  72.1540000  58.4860000  65.8150000  73.2830000
  64.9340000  35.5430000  77.1840000  64.1970000  35.4500000  77.7870000
  65.6710000  35.7940000  77.7420000  46.2690000  63.4780000  86.9970000
  46.5310000  63.2430000  86.1070000  45.3330000  63.6710000  86.9280000
  55.5430000  81.7010000  59.5540000  56.2090000  81.1720000  59.1140000
  55.9990000  82.0890000  60.3010000  55.6450000  47.0920000  88.3900000
  55.6650000  47.0620000  87.4340000  56.5250000  46.8270000  88.6570000
  57.9110000  84.0620000  58.8120000  58.7860000  84.1660000  58.4390000
  57.7260000  83.1260000  58.7340000  88.4240000  52.2690000  76.9760000
  89.0000000  52.6570000  77.6340000  89.0000000  52.0810000  76.2350000
  53.7680000  61.1610000  62.6500000  54.5320000  60.6150000  62.4670000
  54.1250000  61.9360000  63.0860000  86.5120000  76.6070000  63.2700000
  86.7060000  77.3100000  63.8900000  85.7870000  76.1280000  63.6700000
  37.0430000  79.4640000  87.3330000  37.1880000  79.9230000  88.1600000
  36.9750000  78.5410000  87.5800000  43.9760000  79.3250000  62.4960000
  44.5780000  78.5960000  62.6430000  43.2730000  78.9520000  61.9630000
  63.1330000  54.6530000  64.0270000  64.0020000  54.3270000  63.7930000
  62.5490000  54.2740000  63.3700000  53.2540000  37.2360000  62.6070000
  53.5450000  36.7760000  61.8200000  53.7670000  38.0450000  62.6150000
  53.3990000  63.2860000  89.4690000  53.7180000  64.1880000  89.4570000
  54.1370000  62.7660000  89.1510000  54.3320000  31.4730000  63.3230000
  53.8560000  31.0000000  62.6400000  55.1600000  31.0000000  63.4100000
  33.9700000  31.4170000  68.8840000  33.1150000  31.0150000  69.0390000
  34.5500000  31.0000000  69.5220000  38.0160000  53.8920000  96.2410000
  38.6870000  53.6530000  95.6020000  37.6230000  53.0590000  96.5000000
  83.3910000  31.7260000  74.8800000  82.9130000  31.0070000  74.4680000
  82.7340000  32.4120000  75.0030000  78.3320000  59.1230000  59.5470000
  78.2650000  59.9280000  59.0330000  79.2090000  58.7890000  59.3570000
  37.2530000  50.0930000  78.6260000  38.1110000  49.6680000  78.6440000
  36.6290000  49.3700000  78.5500000  83.8490000  37.6640000  58.5520000
  83.9710000  36.8300000  58.0990000  84.7320000  38.0250000  58.6320000
  69.8310000  33.2880000  76.0270000  70.4150000  33.9680000  75.6920000
  69.2630000  33.0730000  75.2860000  73.5690000  44.9660000  92.8130000
  74.5030000  45.1760000  92.8070000  73.1320000  45.8160000  92.8550000
  82.3510000  82.6650000  94.5310000  83.2230000  82.4540000  94.1990000
  82.0450000  81.8520000  94.9340000  82.0610000  55.8670000  58.9950000
  82.0020000  55.8380000  59.9500000  83.0010000  55.8930000  58.8140000
  46.8440000  60.2290000  93.9760000  47.4080000  60.7670000  93.4210000
  46.0440000  60.7440000  94.0770000  58.7190000  60.1790000  68.3410000
  57.8550000  59.9870000  68.7040000  58.9700000  59.3760000  67.8820000
  57.9680000  60.1240000  79.2510000  57.8280000  59.2310000  79.5660000
  57.1430000  60.5750000  79.4320000  84.8840000  70.7740000  89.7870000
  84.8970000  71.6010000  89.3040000  84.5860000  70.1270000  89.1470000
  53.8380000  49.8090000  81.9880000  54.4350000  49.1450000  81.6430000
  54.3310000  50.6280000  81.9300000  39.0770000  34.5650000  88.0600000
  39.2330000  35.5010000  87.9360000  38.1810000  34.5140000  88.3950000
  36.8930000  62.8180000  68.6500000  37.5080000  62.1140000  68.4450000
  36.3790000  62.4820000  69.3850000  39.0670000  33.0200000  82.6560000
  39.2630000  33.2660000  83.5600000  38.2050000  32.6050000  82.7020000
  31.5670000  81.0710000  88.8470000  31.0000000  80.3030000  88.9020000
  31.0000000  81.7650000  88.5090000  80.2940000  42.9010000  86.4160000
  80.1250000  42.3320000  85.6660000  79.4630000  43.3510000  86.5690000
  61.8520000  68.4180000  58.8720000  62.8040000  68.4770000  58.7930000
  61.5820000  69.2870000  59.1720000  73.9740000  82.9570000  61.2360000
  74.8350000  83.3120000  61.4560000  74.1620000  82.1980000  60.6840000
  68.9490000  84.0180000  82.8610000  68.0120000  83.8440000  82.7670000
  68.9920000  84.8850000  83.2640000  71.6520000  61.8120000  57.0540000
  71.2320000  61.0610000  56.6350000  72.3910000  62.0230000  56.4840000
  80.3630000  56.5250000  76.0430000  79.5320000  56.9910000  75.9520000
  81.0190000  57.2190000  76.1210000  68.0690000  73.1710000  77.6100000
  67.6090000  72.4030000  77.9480000  68.1850000  73.7360000  78.3740000
  61.0720000  81.8070000  56.0000000  60.4340000  82.5040000  56.1510000
  60.5550000  81.0010000  56.0130000  38.8430000  49.7110000  89.4080000
  38.1190000  50.1370000  88.9490000  39.3130000  50.4290000  89.8330000
  35.3260000  44.8060000  67.1290000  35.5480000  45.6610000  67.4960000
  34.3880000  44.7100000  67.2960000  68.4090000  51.9660000  67.9240000
  68.9170000  52.7770000  67.9040000  67.7210000  52.1290000  68.5700000
  47.6010000  84.4710000  65.4790000  48.0800000  85.1250000  65.9870000
  46.8000000  84.9180000  65.2040000  68.1880000  38.4680000  87.4010000
  68.5230000  37.8480000  88.0490000  68.9340000  39.0340000  87.2020000
  85.7010000  41.0000000  88.1230000  85.2970000  40.6650000  87.3230000
  86.5990000  40.6670000  88.0950000  84.0000000  37.0750000  72.1990000
  84.3230000  37.5270000  71.4200000  83.9820000  36.1500000  71.9490000
  78.4370000  33.7550000  80.0270000  78.0980000  34.4280000  79.4370000
  77.9860000  32.9540000  79.7620000  35.3680000  34.4370000  80.5150000
  36.1130000  34.2930000  79.9310000  34.7160000  33.7950000  80.2350000
  34.5790000  56.9940000  63.4720000  33.6360000  56.9420000  63.6310000
  34.8450000  57.8190000  63.8790000  53.4740000  33.3410000  65.0560000
  52.9540000  33.5590000  64.2830000  54.3540000  33.6540000  64.8490000
  65.1140000  56.5250000  95.7220000  65.1680000  55.6470000  95.3440000
  65.8020000  56.5420000  96.3880000  78.2850000  58.7710000  80.8180000
  79.2400000  58.8350000  80.8420000  77.9810000  59.6590000  81.0080000
  45.9580000  70.1390000  69.4830000  45.5190000  70.5080000  68.7170000
  45.2840000  69.6150000  69.9170000  70.3380000  88.7860000  83.1670000
  71.0690000  89.0000000  83.7470000  70.7000000  88.8660000  82.2850000
  53.8580000  69.6260000  89.2370000  53.8340000  70.0890000  88.4000000
  52.9400000  69.4390000  89.4340000  49.6040000  53.6980000  81.4590000
  48.6580000  53.6880000  81.6030000  49.7990000  54.6000000  81.2050000
  80.5880000  75.4180000  80.3430000  81.2500000  74.7470000  80.5070000
  80.9400000  76.2090000  80.7520000  50.1320000  61.6270000  95.0970000
  49.2430000  61.2770000  95.0400000  50.6450000  60.9170000  95.4840000
  76.9760000  47.5990000  62.8530000  77.5670000  46.9840000  63.2880000
  76.6470000  47.1190000  62.0930000  83.4420000  49.4560000  96.5000000
  83.7540000  49.6300000  95.6120000  82.5000000  49.6230000  96.4600000
  41.6970000  80.3740000  58.4720000  40.9990000  79.8790000  58.9000000
  41.3550000  81.2670000  58.4100000  63.5650000  85.1480000  91.0350000
  64.2370000  85.1180000  90.3540000  62.9230000  84.4900000  90.7670000
  31.9530000  68.0450000  61.3400000  32.2720000  67.3840000  61.9530000
  31.0000000  68.0170000  61.4310000  46.5240000  70.1800000  60.0050000
  45.5810000  70.3120000  59.9130000  46.6070000  69.4950000  60.6690000
  69.4460000  78.4290000  65.1210000  69.8170000  78.3010000  64.2480000
  68.4990000  78.4340000  64.9810000  63.1090000  71.4190000  69.1380000
  62.3280000  71.9700000  69.0810000  63.0960000  71.0770000  70.0320000
  31.0000000  41.9220000  83.3740000  31.0410000  41.5690000  84.2630000
  31.8930000  42.2140000  83.1900000  83.3950000  42.7610000  72.4750000
  84.1630000  42.4050000  72.9210000  83.7250000  43.0550000  71.6260000
  65.0050000  46.7730000  85.5520000  64.4100000  47.1570000  84.9080000
  65.6920000  46.3600000  85.0280000  87.5650000  39.0900000  71.0710000
  88.1460000  39.7500000  70.6940000  87.0030000  38.8220000  70.3440000
  58.2080000  48.4020000  78.3470000  58.6620000  47.5600000  78.3130000
  58.9100000  49.0510000  78.3940000  64.4500000  63.1190000  72.5380000
  64.1080000  62.2270000  72.4740000  63.6820000  63.6790000  72.4270000
  59.3130000  52.1610000  62.3650000  60.0260000  52.3190000  61.7470000
  59.7390000  51.7700000  63.1280000  36.9070000  60.1940000  76.5920000
  36.9080000  60.9710000  77.1490000  37.5010000  60.4120000  75.8730000
  83.2120000  46.9110000  83.1450000  83.7860000  46.7140000  83.8850000
  82.5270000  47.4690000  83.5140000  86.5920000  49.4790000  78.5340000
  85.8820000  48.9930000  78.9530000  86.1910000  49.8630000  77.7530000
  42.0740000  63.9400000  86.9510000  42.8570000  63.8810000  87.4990000
  41.4480000  64.4350000  87.4800000  33.7420000  44.8210000  56.0000000
  33.8120000  44.5590000  56.9180000  33.8090000  45.7760000  56.0170000
  45.7520000  50.2600000  83.8070000  46.4210000  50.7880000  84.2420000
  45.9300000  50.3700000  82.8720000  51.4220000  35.9000000  58.5940000
  51.4190000  35.2300000  57.9110000  52.1290000  35.6360000  59.1850000
  40.5620000  67.9270000  62.1750000  41.0880000  67.2580000  62.6130000
  40.7240000  67.7870000  61.2420000  45.7050000  31.1970000  85.1040000
  45.9260000  31.0000000  86.0140000  45.8230000  32.1440000  85.0280000
  77.1270000  52.2410000  85.2540000  76.6540000  52.8480000  84.6850000
  77.6840000  52.8010000  85.7940000  41.7120000  74.7360000  90.2980000
  42.4370000  75.2060000  90.7090000  41.9510000  73.8110000  90.3760000
  44.3960000  44.1860000  86.4870000  43.9250000  43.3900000  86.2440000
  43.7080000  44.8240000  86.6760000  69.1170000  85.2820000  89.5370000
  68.2210000  85.3950000  89.2170000  69.3260000  84.3680000  89.3440000
  36.4160000  56.2210000  96.4930000  35.6810000  56.8350000  96.5000000
  36.0050000  55.3560000  96.4940000  84.2710000  65.4890000  59.9960000
  84.0600000  66.1840000  59.3740000  84.1500000  64.6780000  59.5000000
  32.9850000  84.8530000  92.3500000  33.2870000  85.3450000  93.1120000
  33.0680000  83.9350000  92.6080000  60.9720000  57.9400000  94.6160000
  61.2490000  57.0690000  94.3330000  60.6150000  57.8050000  95.4940000
  56.7860000  62.9540000  83.8010000  56.1370000  62.9720000  83.0980000
  57.5250000  63.4570000  83.4580000  79.0680000  31.1880000  93.7640000
  78.5260000  31.0000000  92.9980000  79.9630000  31.0060000  93.4750000
  46.5560000  79.5730000  86.8310000  46.5060000  80.4070000  86.3640000
  47.0640000  79.7690000  87.6190000  63.6150000  66.6830000  60.7930000
  63.9040000  65.7730000  60.8640000  62.6670000  66.6250000  60.6770000
  33.2730000  80.0630000  81.4580000  32.6890000  79.5170000  80.9330000
  33.1980000  80.9360000  81.0720000  40.5290000  80.6240000  65.8730000
  41.3400000  80.8370000  65.4120000  40.6240000  79.7010000  66.1110000
  54.4940000  34.0940000  85.4340000  55.4040000  33.9120000  85.6680000
  54.3710000  35.0190000  85.6490000  62.9740000  36.9900000  65.4570000
  63.7690000  36.7760000  64.9690000  63.0650000  37.9190000  65.6680000
  54.8090000  74.9010000  74.6210000  54.3560000  74.1190000  74.9350000
  54.2130000  75.6220000  74.8270000  42.9410000  68.4780000  67.6170000
  42.4010000  68.5220000  66.8270000  42.7230000  69.2740000  68.1010000
  42.0440000  54.5720000  56.6060000  41.0930000  54.6420000  56.6840000
  42.3590000  55.4720000  56.6890000  69.2380000  55.8620000  71.7650000
  69.1220000  56.7830000  71.5300000  70.1140000  55.6420000  71.4470000
  52.7780000  65.0310000  95.4200000  53.4170000  64.4500000  95.8310000
  52.6770000  64.6870000  94.5320000  53.4000000  89.0000000  95.8860000
  52.8810000  88.3440000  95.4220000  53.9330000  88.4940000  96.5000000
  71.4730000  45.0880000  63.2070000  72.1310000  44.8580000  63.8630000
  71.9350000  45.6590000  62.5930000  84.1420000  77.0920000  94.2580000
  84.5560000  76.3940000  93.7500000  84.2440000  76.8170000  95.1700000
  45.7140000  40.1920000  56.0000000  44.8950000  39.7000000  56.0380000
  46.3800000  39.5750000  56.3070000  51.9020000  45.8570000  83.6030000
  51.0120000  45.9110000  83.9510000  52.2300000  45.0120000  83.9120000
  31.0000000  88.7150000  85.2390000  31.0000000  87.7610000  85.3150000
  31.7240000  89.0000000  85.7970000  80.1840000  73.8580000  82.7080000
  79.9750000  74.2170000  83.5700000  79.4350000  74.0980000  82.1610000
  70.1810000  68.3590000  65.9990000  69.5040000  67.7010000  65.8430000
  69.7000000  69.1820000  66.0870000  62.6310000  89.0000000  85.9860000
  62.4830000  88.6110000  85.1240000  63.5830000  89.0000000  86.0890000
  67.3730000  84.5170000  85.5480000  67.0570000  85.4180000  85.4800000
  68.3200000  84.6030000  85.6560000  50.2020000  33.3850000  64.4120000
  50.2340000  34.3120000  64.1780000  50.1730000  33.3800000  65.3690000
  49.3270000  58.5340000  86.5570000  49.8590000  58.2890000  87.3140000
  49.3810000  57.7790000  85.9710000  83.2440000  63.6770000  96.4640000
  82.8360000  64.5420000  96.5000000  83.1660000  63.4120000  95.5470000
  55.4290000  31.0950000  75.9310000  54.5980000  31.0460000  76.4040000
  56.0970000  31.0000000  76.6110000  86.9460000  83.7230000  63.0480000
  86.8900000  82.8200000  62.7350000  87.7780000  83.7620000  63.5210000
  56.5920000  58.3160000  58.5980000  56.8860000  57.4280000  58.3980000
  55.6390000  58.2460000  58.6570000  68.4030000  88.6000000  58.4320000
  69.1190000  88.7660000  59.0450000  67.6140000  88.6180000  58.9750000
  76.1580000  86.3830000  86.0280000  75.6910000  86.0780000  85.2500000
  75.4690000  86.5400000  86.6750000  62.6450000  71.7880000  75.2440000
  63.5340000  71.5380000  75.4970000  62.1490000  70.9690000  75.2690000
  48.9730000  47.0980000  56.5100000  49.3920000  46.3840000  56.0290000
  49.1780000  47.8830000  56.0000000  77.2440000  77.2220000  92.4640000
  78.0210000  77.1540000  93.0190000  77.2460000  76.4140000  91.9500000
  58.8510000  46.2570000  68.9630000  59.5670000  46.8410000  69.2130000
  58.1070000  46.8410000  68.8120000  89.0000000  59.1550000  71.2170000
  88.5910000  59.9230000  70.8190000  88.3220000  58.7910000  71.7870000
  41.6020000  74.9120000  84.9000000  42.4390000  74.4860000  85.0810000
  41.3700000  75.3430000  85.7230000  37.1200000  70.9890000  88.1230000
  37.3880000  71.8900000  88.3030000  36.4670000  71.0680000  87.4270000
  58.3230000  74.4880000  70.6170000  58.8630000  74.3860000  71.4000000
  58.9330000  74.3720000  69.8880000  38.6530000  61.9420000  70.7510000
  39.3630000  61.7700000  71.3700000  38.1070000  62.5960000  71.1880000
  76.4870000  61.5740000  80.1790000  76.9030000  61.3310000  79.3520000
  75.9920000  62.3680000  79.9740000  48.1700000  33.5520000  86.6910000
  48.3510000  34.4890000  86.7520000  48.0220000  33.3960000  85.7570000
  37.2480000  44.7020000  76.4380000  37.1410000  44.7390000  77.3890000
  38.0700000  45.1640000  76.2710000  50.9470000  40.2130000  64.1950000
  51.1540000  40.6970000  64.9950000  51.8000000  39.9850000  63.8250000
  33.5030000  68.2230000  79.5720000  34.1190000  67.7470000  80.1280000
  33.6350000  67.8550000  78.6980000  78.5220000  44.9690000  60.0780000
  78.4430000  45.4950000  60.8730000  77.7020000  45.1210000  59.6070000
  46.4130000  59.2680000  57.9230000  47.0720000  59.7510000  58.4220000
  46.4660000  58.3730000  58.2590000  31.5030000  42.0320000  87.3950000
  32.3670000  42.4320000  87.2950000  31.0000000  42.3600000  86.6490000
  59.8130000  35.0960000  57.1150000  60.5780000  35.4890000  56.6970000
  60.1760000  34.4610000  57.7340000  56.8740000  34.1240000  95.1600000
  57.5400000  33.4750000  95.3840000  56.1640000  33.6130000  94.7700000
  33.3630000  55.1110000  95.9190000  33.1640000  55.8450000  96.5000000
  33.4140000  54.3510000  96.5000000  50.1110000  76.5060000  67.6100000
  49.8590000  76.7100000  68.5100000  50.7460000  77.1850000  67.3780000
  64.2840000  76.3140000  76.8730000  63.4250000  76.5680000  76.5350000
  64.5250000  77.0200000  77.4720000  41.0400000  82.8790000  63.1270000
  41.0540000  82.9350000  64.0820000  41.3320000  83.7420000  62.8320000
  74.6610000  60.0890000  63.4780000  75.1180000  60.1170000  62.6380000
  74.9480000  59.2690000  63.8800000  37.9320000  72.0720000  66.4260000
  37.1580000  72.6340000  66.4430000  37.9330000  71.6920000  65.5470000
  48.0070000  39.0990000  73.9370000  48.3420000  38.2650000  74.2670000
  47.1720000  38.8760000  73.5250000  61.0770000  51.3070000  59.7120000
  60.7950000  50.9910000  58.8540000  61.8790000  50.8170000  59.8960000
  34.1640000  80.5680000  88.9240000  35.0400000  80.9280000  89.0630000
  34.3150000  79.6460000  88.7140000  64.4520000  82.5390000  71.9170000
  65.3910000  82.6890000  71.8040000  64.0360000  83.2770000  71.4710000
  83.4280000  32.4760000  93.0650000  83.1860000  31.5510000  93.0460000
  84.0490000  32.5760000  92.3420000  31.0060000  82.1820000  96.4890000
  31.0000000  83.1380000  96.4880000  31.9350000  81.9480000  96.5000000
  47.5480000  86.6040000  88.9390000  48.3080000  86.1600000  88.5640000
  47.5890000  86.4030000  89.8740000  32.1030000  38.0770000  73.6700000
  31.1660000  38.2640000  73.7300000  32.5170000  38.9390000  73.6220000
  58.2830000  63.0450000  60.3890000  59.1790000  63.3430000  60.2290000
  58.2860000  62.1250000  60.1250000  64.9140000  57.2890000  56.0080000
  64.0730000  57.7460000  56.0000000  64.6810000  56.3610000  56.0500000
  74.7190000  43.5930000  75.1510000  75.5260000  43.9270000  75.5420000
  74.2680000  44.3730000  74.8270000  31.0020000  79.6440000  61.3950000
  31.0000000  80.6000000  61.3510000  31.8200000  79.3860000  60.9690000
  35.2540000  49.5630000  62.6980000  34.8590000  48.8550000  62.1900000
  36.1680000  49.2990000  62.8100000  48.1810000  42.9210000  60.4270000
  49.1170000  42.7370000  60.3470000  48.1140000  43.5010000  61.1860000
  64.4810000  88.9140000  56.0360000  65.4330000  89.0000000  56.0020000
  64.3310000  88.0990000  56.5160000  72.8820000  52.2240000  77.6640000
  73.0440000  52.6360000  78.5130000  73.7240000  51.8400000  77.4200000
  55.8790000  50.1210000  79.8500000  56.5190000  50.2050000  79.1440000
  55.0550000  50.4190000  79.4650000  87.5680000  40.0110000  67.4690000
  86.8410000  39.9910000  68.0920000  87.1510000  40.1500000  66.6180000
  54.0130000  66.4400000  73.9430000  53.2900000  65.8140000  73.9180000
  53.5880000  67.2980000  73.9400000  58.5360000  57.2480000  65.8880000
  59.3620000  57.3680000  65.4210000  58.6820000  56.4810000  66.4420000
  58.4330000  72.6410000  75.8490000  57.8690000  72.9770000  76.5460000
  59.3040000  72.5990000  76.2440000  51.0650000  86.3930000  82.8920000
  51.0620000  86.7010000  83.7980000  50.1410000  86.3710000  82.6430000
  78.0440000  34.2310000  59.5120000  78.4860000  34.0980000  60.3510000
  77.4670000  33.4720000  59.4220000  77.4430000  43.3910000  62.9590000
  78.0170000  42.9530000  62.3310000  76.6330000  43.5490000  62.4730000
  56.4510000  83.4410000  87.5030000  55.7220000  82.9970000  87.9350000
  56.0890000  83.7440000  86.6700000  32.1510000  41.1820000  72.4720000
  32.5350000  41.6980000  73.1800000  32.8780000  41.0180000  71.8710000
  40.5200000  56.2710000  91.7110000  40.1860000  57.1120000  91.4010000
  39.7380000  55.7320000  91.8350000  84.6390000  59.0770000  56.0740000
  85.3690000  59.6920000  56.1270000  83.8620000  59.6320000  56.0000000
  88.9850000  73.5610000  88.6840000  88.9210000  74.2410000  88.0130000
  88.7800000  74.0110000  89.5030000  81.3040000  68.9680000  79.6310000
  80.6520000  69.4170000  79.0920000  81.6850000  69.6600000  80.1720000
  31.1860000  63.4950000  76.7240000  31.0000000  62.8280000  77.3850000
  31.9680000  63.1760000  76.2740000  38.1280000  33.6000000  59.8830000
  37.7590000  33.8680000  59.0420000  38.6020000  32.7910000  59.6900000
  85.5350000  57.4290000  89.5860000  85.4770000  57.9140000  90.4080000
  86.4700000  57.2540000  89.4760000  44.3490000  79.8640000  85.1650000
  43.4710000  79.8990000  84.7860000  44.2910000  79.1900000  85.8430000
  64.0740000  76.3370000  84.4900000  64.1850000  76.2340000  85.4350000
  64.6840000  77.0360000  84.2510000  31.7000000  33.3450000  88.4360000
  31.2350000  33.1140000  87.6320000  31.0070000  33.4960000  89.0790000
  43.6980000  83.3290000  84.0910000  43.9390000  83.1720000  83.1780000
  43.9420000  84.2410000  84.2490000  52.9530000  81.6330000  74.6050000
  53.3260000  82.5060000  74.4830000  52.0060000  81.7740000  74.6000000
  33.8930000  84.3260000  95.5990000  33.2450000  83.8300000  95.1000000
  33.7890000  84.0180000  96.5000000  32.2670000  38.0610000  61.5900000
  32.8250000  37.2900000  61.6900000  32.8780000  38.7800000  61.4310000
  63.6440000  79.7400000  77.6790000  63.9850000  80.3220000  76.9990000
  62.7350000  80.0160000  77.7980000  86.4850000  38.4480000  91.9080000
  87.4300000  38.5970000  91.9030000  86.3920000  37.4950000  91.9170000
  56.6240000  88.6780000  92.0530000  57.5230000  89.0000000  92.1180000
  56.7110000  87.7240000  92.0410000  52.0650000  88.9500000  91.1460000
  51.8800000  88.0200000  91.2710000  53.0200000  89.0000000  91.0950000
  89.0000000  65.2840000  75.1910000  88.8980000  64.6170000  74.5130000
  88.3850000  65.0240000  75.8780000  41.2810000  32.2530000  57.7250000
  40.6950000  32.9760000  57.9490000  40.7610000  31.6930000  57.1470000
  80.7290000  46.6600000  56.5740000  81.1520000  46.0210000  56.0000000
  80.1300000  47.1380000  56.0000000  56.4090000  82.8300000  72.0200000
  55.7870000  82.3610000  72.5750000  57.0930000  82.1870000  71.8300000
  63.4340000  40.5150000  93.7750000  62.8780000  40.1330000  93.0970000
  63.8960000  39.7670000  94.1560000  84.9660000  73.2720000  76.9420000
  84.7230000  73.3760000  76.0220000  84.5720000  74.0260000  77.3810000
  75.1920000  68.2710000  73.3520000  76.0930000  68.5550000  73.1990000
  74.6880000  69.0840000  73.3900000  85.3230000  63.9620000  79.0690000
  86.1650000  63.5100000  79.1130000  85.4530000  64.7630000  79.5770000
  64.6070000  53.4390000  82.6360000  64.1650000  54.0390000  83.2360000
  64.4530000  52.5700000  83.0080000  75.0930000  49.8250000  92.5790000
  75.4610000  50.7090000  92.6010000  74.3990000  49.8380000  93.2390000
  65.3670000  51.3030000  85.7510000  64.5400000  51.2730000  86.2320000
  65.1430000  51.0080000  84.8680000  49.3680000  82.5770000  87.1980000
  50.2930000  82.6850000  86.9770000  49.0580000  83.4650000  87.3760000
  60.4850000  61.7050000  83.9870000  60.7700000  62.4510000  83.4600000
  59.8410000  61.2560000  83.4390000  37.2730000  68.3270000  92.4220000
  37.8970000  68.6320000  93.0810000  36.9870000  67.4700000  92.7400000
  72.9600000  49.8670000  70.7110000  73.7730000  50.3700000  70.6610000
  73.2310000  49.0020000  71.0190000  52.2770000  87.9850000  59.3910000
  51.7780000  88.6770000  59.8240000  51.6370000  87.5380000  58.8370000
  67.3190000  70.8770000  93.7390000  67.5830000  70.0100000  93.4320000
  68.1440000  71.3410000  93.8870000  35.7130000  88.9760000  96.4700000
  35.0410000  88.2960000  96.5000000  36.5400000  88.4950000  96.4290000
  50.7520000  80.3570000  93.9780000  50.2300000  79.5550000  93.9920000
  51.6600000  80.0530000  93.9730000  52.1880000  32.9390000  86.5670000
  51.7910000  33.7440000  86.2360000  51.6640000  32.7110000  87.3350000
  62.3420000  37.7490000  92.3740000  62.5360000  37.6650000  93.3080000
  61.4930000  38.1900000  92.3440000  32.3300000  56.2770000  79.7950000
  32.6120000  55.8290000  80.5930000  31.5200000  55.8320000  79.5440000
  86.7360000  68.9360000  91.2410000  85.8210000  68.7240000  91.4230000
  86.7800000  69.8900000  91.3100000  70.0090000  60.9430000  61.0640000
  70.2780000  60.6440000  61.9330000  69.7460000  61.8540000  61.1950000
  88.4140000  40.4950000  62.8870000  89.0000000  39.9200000  62.3950000
  88.9970000  41.0100000  63.4450000  77.1500000  88.9670000  80.9180000
  76.6770000  89.0000000  80.0870000  76.4650000  89.0000000  81.5860000
  81.0760000  46.0180000  89.5890000  80.9310000  46.9390000  89.3730000
  80.5690000  45.5350000  88.9350000  40.0860000  44.6810000  64.4860000
  40.4320000  44.1950000  63.7380000  39.9890000  44.0230000  65.1750000
  35.0880000  73.2110000  96.4250000  34.8220000  74.1300000  96.4060000
  36.0430000  73.2390000  96.5000000  65.8120000  33.8380000  65.6530000
  66.0050000  33.3920000  66.4770000  66.1360000  33.2420000  64.9760000
  39.7440000  83.4190000  94.2190000  40.6700000  83.5510000  94.0150000
  39.3790000  84.3030000  94.2600000  51.1230000  57.1040000  65.4790000
  52.0030000  56.7290000  65.5000000  51.1830000  57.8230000  64.8490000
  80.1380000  33.2910000  58.2750000  80.6730000  33.6800000  58.9670000
  80.7720000  32.9240000  57.6580000  50.6050000  64.9450000  91.1620000
  50.2350000  65.7920000  91.4100000  51.0870000  65.1200000  90.3530000
  33.4580000  87.0140000  86.3140000  33.1710000  87.2910000  87.1840000
  33.2900000  86.0710000  86.2950000  52.1300000  71.6380000  72.0040000
  52.2160000  70.8060000  71.5390000  52.7930000  71.5970000  72.6940000
  38.5180000  61.9620000  61.3250000  38.4990000  61.5420000  62.1840000
  38.9780000  62.7890000  61.4710000  60.8030000  35.8700000  86.7720000
  60.0450000  35.8640000  86.1870000  61.3040000  35.0930000  86.5220000
  65.0020000  85.2960000  87.2290000  64.3880000  84.5860000  87.4140000
  65.6650000  85.2250000  87.9160000  77.3720000  60.0830000  77.1600000
  76.5960000  59.5870000  76.8980000  77.7820000  59.5460000  77.8380000
  75.5770000  44.2780000  56.4910000  75.5880000  44.8990000  57.2190000
  76.3770000  44.4690000  56.0000000  59.0340000  81.6150000  73.4860000
  58.9300000  80.8680000  72.8960000  58.2290000  81.6260000  74.0040000
  46.1530000  89.0000000  95.9790000  46.8740000  88.9210000  95.3550000
  46.1980000  88.1980000  96.5000000  39.0770000  54.4010000  80.8300000
  38.6900000  55.1540000  80.3840000  38.3440000  53.9930000  81.2920000
  56.3590000  78.1080000  59.6350000  56.8080000  78.5990000  58.9470000
  57.0600000  77.8170000  60.2180000  81.7660000  39.1380000  66.6870000
  81.9090000  38.3140000  66.2230000  81.0680000  38.9440000  67.3140000
  41.6270000  56.4130000  82.9250000  41.6840000  57.3410000  83.1530000
  40.6910000  56.2550000  82.7960000  58.5690000  37.2980000  87.9320000
  58.7710000  36.5560000  88.5010000  57.6310000  37.4450000  88.0530000
  86.1180000  73.2620000  90.7180000  86.2140000  73.4690000  91.6470000
  86.8810000  72.7210000  90.5120000  80.2230000  72.4000000  80.5030000
  80.4800000  71.9270000  79.7120000  80.1120000  71.7180000  81.1660000
  75.3980000  52.7190000  81.7610000  74.6960000  53.1700000  82.2280000
  75.9540000  53.4230000  81.4260000  79.2980000  33.5860000  66.8930000
  79.9500000  32.9250000  67.1240000  79.5000000  34.3320000  67.4580000
  31.0000000  76.8660000  84.9800000  31.0200000  76.2480000  84.2490000
  31.1910000  77.7150000  84.5810000  70.5210000  55.0220000  61.4700000
  70.0470000  55.4370000  60.7500000  71.4390000  55.2460000  61.3140000
  64.4180000  57.9960000  93.5700000  63.4750000  57.8580000  93.4790000
  64.4940000  58.7750000  94.1220000  77.1970000  77.8280000  71.2720000
  77.8580000  78.4500000  71.5740000  77.6750000  77.2300000  70.6970000
  67.4200000  78.7800000  94.7880000  67.6410000  79.3460000  95.5270000
  68.2570000  78.6080000  94.3570000  74.2160000  65.0760000  68.6620000
  74.6500000  65.9270000  68.6050000  73.2820000  65.2850000  68.6890000
  32.2500000  70.1550000  65.6610000  32.8260000  69.4980000  65.2720000
  31.5690000  69.6450000  66.1020000  33.6060000  59.6530000  62.4730000
  33.0640000  60.4210000  62.2900000  34.4870000  60.0070000  62.6020000
  37.6840000  79.1860000  77.5660000  37.9780000  80.0910000  77.4730000
  36.7420000  79.2550000  77.7270000  42.2240000  84.5960000  57.9470000
  42.1120000  84.1520000  57.1070000  42.2770000  83.8860000  58.5880000
  32.1340000  31.3670000  83.0900000  31.3380000  31.0000000  82.7060000
  32.8450000  31.0000000  82.5630000  64.1840000  80.4810000  91.0540000
  63.6960000  81.2830000  91.2400000  64.5240000  80.2040000  91.9050000
  45.6140000  80.1330000  68.6900000  46.1170000  80.3170000  69.4830000
  44.9870000  80.8540000  68.6300000  64.9240000  47.5400000  92.7130000
  65.3300000  48.3990000  92.8290000  63.9840000  47.7210000  92.6860000
  79.4960000  62.8260000  81.8510000  79.6080000  61.9400000  81.5070000
  80.2940000  63.2860000  81.5920000  43.4510000  82.0780000  64.7190000
  43.6290000  81.3650000  64.1060000  44.3030000  82.2810000  65.1060000
  84.8720000  69.5050000  76.6340000  85.6560000  68.9770000  76.4820000
  85.1950000  70.4050000  76.6810000  36.7920000  35.2300000  63.8100000
  37.4870000  34.9580000  64.4090000  35.9850000  35.1240000  64.3160000
  70.3110000  56.6570000  63.3980000  70.0740000  57.5840000  63.3770000
  71.2680000  56.6550000  63.4270000  81.0510000  66.0930000  64.5960000
  81.9360000  66.1290000  64.2340000  80.9550000  66.9160000  65.0760000
  52.0200000  35.5440000  67.0050000  51.4590000  34.8900000  67.4210000
  51.9150000  35.3880000  66.0660000  57.1530000  35.3710000  86.6980000
  56.6460000  35.1330000  87.4740000  57.6870000  34.5970000  86.5140000
  31.2560000  37.0460000  58.5610000  31.0000000  37.6660000  59.2440000
  31.0010000  37.4720000  57.7420000  77.4560000  57.9240000  89.5240000
  78.1330000  58.1800000  88.8980000  76.6320000  58.0770000  89.0610000
  83.0190000  63.1710000  68.6440000  83.6790000  62.4800000  68.6710000
  82.3290000  62.8680000  69.2350000  83.6880000  71.5520000  68.9200000
  84.3990000  72.1400000  69.1710000  82.9460000  71.8270000  69.4600000
  52.6450000  74.9930000  58.5830000  52.1580000  75.4390000  59.2760000
  52.2320000  74.1320000  58.5160000  73.6300000  75.6120000  62.1330000
  73.8970000  76.5310000  62.1150000  74.3930000  75.1340000  61.8060000
  86.3320000  31.5630000  92.2550000  86.6590000  32.3620000  92.6690000
  86.0780000  31.0000000  92.9860000  34.5350000  49.0390000  93.8710000
  35.1370000  49.7110000  93.5530000  33.7350000  49.5170000  94.0900000
  57.8330000  78.0260000  85.1290000  57.7330000  77.3780000  84.4320000
  57.2240000  77.7410000  85.8110000  79.1010000  89.0000000  56.7130000
  78.4710000  88.8370000  57.4130000  78.8980000  88.3410000  56.0480000
  77.2550000  53.4160000  61.8070000  77.3860000  52.4730000  61.9000000
  78.1400000  53.7760000  61.7400000  44.4190000  58.7480000  80.7250000
  43.8000000  58.0190000  80.6890000  45.2750000  58.3430000  80.5870000
  34.0240000  46.4800000  83.3970000  34.8590000  46.0640000  83.1840000
  33.6690000  46.7510000  82.5500000  85.9070000  58.8950000  84.2780000
  85.7850000  59.8390000  84.1740000  86.2580000  58.6050000  83.4360000
  81.7740000  47.8810000  65.6830000  81.1340000  47.7090000  66.3730000
  82.6210000  47.8630000  66.1290000  66.4650000  89.0000000  74.0480000
  67.4110000  89.0000000  73.9060000  66.2780000  88.1390000  74.4230000
  45.2920000  42.1050000  69.8140000  45.2480000  42.8300000  69.1910000
  44.4200000  42.0740000  70.2080000  34.7510000  70.5400000  92.7550000
  33.8210000  70.4670000  92.9680000  34.9450000  69.7480000  92.2540000
  69.7880000  77.3160000  75.7330000  68.9440000  76.8670000  75.7720000
  70.4350000  76.6100000  75.7240000  52.2780000  47.6650000  87.2780000
  53.2290000  47.6220000  87.3810000  51.9760000  48.1600000  88.0400000
  40.7120000  48.1550000  65.8380000  40.9080000  48.8780000  65.2420000
  40.1160000  47.5920000  65.3450000  48.6850000  34.0410000  81.0750000
  48.2940000  34.4480000  81.8480000  47.9360000  33.7640000  80.5460000
  85.9740000  56.5510000  87.0570000  85.9030000  57.1270000  86.2960000
  86.9150000  56.4110000  87.1650000  47.1150000  48.8910000  87.1700000
  46.3190000  49.2090000  86.7460000  46.8660000  48.0470000  87.5460000
  40.3800000  31.9380000  67.9370000  39.8890000  32.4570000  67.3000000
  41.2650000  32.3020000  67.9130000  59.7970000  37.5150000  61.1810000
  60.3160000  38.2500000  60.8540000  58.9670000  37.9080000  61.4510000
  42.5480000  41.6490000  64.4040000  41.6150000  41.7760000  64.5730000
  42.8830000  42.5300000  64.2320000  76.4430000  80.7470000  89.7710000
  77.2080000  80.2200000  90.0000000  75.9790000  80.8680000  90.6000000
  33.2550000  76.4540000  72.8040000  33.4820000  76.0760000  73.6540000
  32.9550000  75.7080000  72.2820000  73.2690000  32.7240000  83.1740000
  74.1060000  33.1830000  83.1030000  73.4650000  31.8260000  82.9040000
  53.2450000  88.3460000  72.6970000  52.4450000  88.8480000  72.8470000
  53.8930000  89.0000000  72.4330000  68.9350000  51.8310000  62.4170000
  69.6550000  51.2310000  62.2270000  69.3330000  52.7020000  62.3850000
  39.1560000  44.6250000  57.3750000  38.5650000  44.5610000  58.1260000
  39.0130000  43.8140000  56.8870000  73.3880000  85.7800000  95.5670000
  73.2380000  84.9350000  95.1430000  73.4440000  85.5740000  96.5000000
  35.4580000  83.0510000  93.9600000  36.2950000  83.1890000  93.5160000
  35.1280000  82.2270000  93.6010000  60.0080000  69.7090000  74.9680000
  60.2770000  69.3570000  74.1200000  59.0520000  69.6600000  74.9570000
  57.0280000  41.1210000  77.3870000  56.6250000  41.5490000  76.6320000
  57.6090000  41.7850000  77.7580000  31.1320000  39.9720000  80.4290000
  31.0000000  39.0290000  80.3290000  31.0010000  40.3280000  79.5500000
  31.0000000  37.1160000  83.3020000  31.9070000  37.1710000  83.6040000
  31.0640000  37.1230000  82.3470000  52.0210000  44.2380000  67.5040000
  51.8540000  45.1800000  67.5120000  52.9750000  44.1630000  67.5150000
  54.8490000  33.6430000  67.5580000  55.1340000  34.5540000  67.5000000
  53.9120000  33.6960000  67.7470000  86.2730000  45.4800000  78.8830000
  85.3980000  45.1380000  79.0620000  86.8620000  44.7530000  79.0880000
  47.3210000  61.2070000  66.8410000  47.1000000  61.7250000  66.0670000
  46.9150000  61.6780000  67.5690000  84.9220000  65.5570000  68.2320000
  84.3460000  65.5840000  68.9960000  85.0310000  64.6240000  68.0470000
  52.0280000  34.1560000  96.0100000  52.6040000  33.5680000  96.5000000
  52.5470000  34.4200000  95.2500000  66.1590000  70.4230000  78.5540000
  66.3810000  69.6400000  79.0570000  65.3310000  70.2060000  78.1250000
  50.8560000  89.0000000  69.7820000  49.9310000  88.9440000  70.0190000
  51.3200000  88.9970000  70.6200000  88.9470000  52.6530000  57.4490000
  88.9980000  51.6970000  57.4520000  89.0000000  52.8980000  58.3730000
  78.1530000  42.7180000  75.7050000  78.0980000  43.6220000  75.3950000
  78.5630000  42.7840000  76.5680000  31.0000000  84.8820000  61.4730000
  31.0030000  85.6490000  60.9020000  31.0760000  84.1370000  60.8760000
  51.9870000  48.9760000  80.2260000  52.7830000  48.6060000  79.8450000
  51.3580000  48.9870000  79.5040000  82.2090000  67.1320000  72.2020000
  82.3360000  67.0020000  73.1410000  82.3600000  66.2680000  71.8170000
  80.4120000  45.7500000  94.9890000  80.9960000  46.4070000  94.6110000
  80.6030000  45.7690000  95.9270000  61.8600000  66.7120000  96.5000000
  62.4110000  67.4940000  96.5000000  62.4790000  65.9820000  96.5000000
  78.1370000  54.9570000  93.3150000  77.5730000  55.2580000  94.0270000
  78.9100000  55.5210000  93.3650000  58.0170000  33.6720000  77.1020000
  57.7430000  32.9520000  77.6700000  57.2590000  34.2570000  77.0740000
  35.7960000  83.1630000  67.2610000  36.2540000  83.4840000  68.0380000
  36.4770000  83.0940000  66.5920000  65.7750000  49.1430000  77.5560000
  65.9590000  48.9970000  78.4840000  66.5820000  49.5240000  77.2080000
  51.6250000  52.9510000  57.4020000  51.1340000  53.2070000  56.6210000
  50.9690000  52.5590000  57.9790000  44.9800000  34.0330000  86.6200000
  45.7560000  34.3680000  86.1700000  45.3120000  33.3300000  87.1780000
  62.9220000  34.2820000  63.2750000  62.5040000  35.0270000  63.7080000
  63.8140000  34.5780000  63.0950000  81.6690000  64.6990000  57.9820000
  80.9620000  65.2430000  57.6360000  81.2260000  63.9260000  58.3330000
  44.1610000  78.9390000  56.1030000  43.2580000  79.2540000  56.0600000
  44.0890000  77.9900000  56.0000000  32.4700000  83.1120000  84.0480000
  31.7250000  83.7090000  83.9770000  32.8030000  83.2490000  84.9350000
  42.0720000  51.8720000  58.2250000  41.3440000  51.2580000  58.3150000
  42.0360000  52.1530000  57.3100000  47.8110000  63.9090000  83.5500000
  47.7560000  64.4820000  84.3150000  47.0080000  63.3890000  83.5820000
  79.2300000  71.3250000  73.8320000  78.9270000  71.6640000  72.9900000
  79.7680000  72.0290000  74.1950000  70.9390000  73.1810000  79.3440000
  70.4090000  72.5320000  78.8810000  70.3000000  73.7770000  79.7350000
  65.5640000  57.2180000  78.4790000  64.7050000  57.6360000  78.5430000
  66.1840000  57.9470000  78.4570000  71.3430000  45.1490000  73.0310000
  72.1660000  45.0860000  73.5140000  71.2980000  44.3370000  72.5260000
  51.1650000  51.8500000  93.5130000  51.9010000  52.1010000  94.0700000
  51.3410000  50.9380000  93.2790000  45.1390000  76.6710000  94.2700000
  45.2240000  76.4850000  93.3350000  45.3510000  77.6020000  94.3500000
  75.4840000  72.5100000  89.4170000  74.9820000  71.7140000  89.5880000
  76.3870000  72.2070000  89.3160000  69.8200000  50.3430000  58.9920000
  70.1540000  49.5150000  58.6480000  69.7290000  50.1930000  59.9330000
  66.6980000  63.9880000  81.2370000  67.4550000  64.1940000  80.6890000
  66.0000000  64.5540000  80.9060000  70.5040000  87.6620000  89.0870000
  71.1500000  87.0050000  88.8250000  70.5130000  87.6390000  90.0440000
  34.1040000  59.0750000  72.8860000  33.3680000  59.6500000  73.0960000
  33.8760000  58.6920000  72.0390000  51.3880000  59.3870000  85.3930000
  50.7440000  59.4950000  84.6930000  51.7470000  58.5100000  85.2550000
  68.4980000  59.4500000  85.3290000  69.0830000  58.6930000  85.3370000
  67.6850000  59.1290000  85.7210000  40.1660000  47.0440000  92.3210000
  39.4550000  47.6780000  92.2300000  40.0040000  46.6200000  93.1640000
  87.3000000  84.9820000  82.9510000  87.0870000  85.9060000  82.8180000
  86.9810000  84.7860000  83.8320000  60.9460000  51.2130000  77.3470000
  60.9870000  50.6790000  78.1400000  61.5030000  50.7530000  76.7190000
  60.9490000  63.6090000  88.3800000  60.0560000  63.2880000  88.2520000
  60.9030000  64.5390000  88.1560000  45.6640000  63.7440000  69.5130000
  45.0720000  63.0640000  69.1900000  46.3900000  63.7450000  68.8900000
  85.8230000  35.6200000  73.5590000  85.1810000  35.3490000  74.2150000
  86.5120000  34.9580000  73.6100000  55.5500000  71.1610000  85.4490000
  54.7260000  70.8360000  85.8130000  56.1560000  70.4250000  85.5350000
  65.4200000  44.2110000  96.0720000  64.6280000  44.2380000  95.5350000
  65.3900000  43.3550000  96.5000000  31.1390000  45.7980000  92.8460000
  31.1980000  45.7800000  93.8010000  31.0000000  44.8840000  92.5970000
  77.2740000  81.3610000  69.1120000  77.3570000  80.5950000  69.6800000
  76.5410000  81.8550000  69.4810000  41.3150000  36.4390000  59.7150000
  40.8200000  35.6720000  59.4300000  40.8170000  36.7840000  60.4560000
  45.0940000  33.5120000  93.2000000  44.5850000  33.1530000  92.4730000
  45.5410000  32.7550000  93.5780000  62.0890000  37.3150000  78.2240000
  61.8270000  36.6540000  77.5830000  62.8120000  37.7820000  77.8050000
  45.8680000  86.6680000  85.9530000  45.0090000  86.3710000  86.2530000
  46.4510000  86.5020000  86.6950000  85.9810000  78.3470000  74.8560000
  86.8520000  78.6240000  75.1400000  85.8420000  78.8060000  74.0270000
  75.0740000  58.5590000  80.5760000  75.8870000  58.1610000  80.2630000
  75.3280000  59.4390000  80.8530000  81.0670000  35.9810000  94.6910000
  80.1270000  35.8370000  94.7960000  81.1600000  36.3230000  93.8020000
  75.8660000  61.6030000  87.2330000  76.6140000  61.0550000  87.0000000
  76.2520000  62.4450000  87.4750000  58.5620000  64.4170000  93.6400000
  58.9370000  65.2610000  93.8910000  57.7850000  64.6420000  93.1290000
  35.2490000  46.2110000  79.7400000  35.9560000  46.4690000  79.1490000
  35.2280000  45.2550000  79.6870000  37.4480000  49.8290000  75.1920000
  36.9520000  49.7550000  76.0080000  38.2770000  49.3860000  75.3750000
  68.3160000  71.4820000  64.0620000  68.4450000  70.6330000  64.4850000
  69.1610000  71.9230000  64.1470000  67.5670000  82.0790000  60.7110000
  68.5170000  82.0610000  60.8240000  67.3120000  81.1570000  60.6720000
  56.1600000  37.0150000  94.2070000  55.9460000  37.1810000  93.2890000
  57.0900000  36.7880000  94.1980000  45.8730000  38.1430000  91.7380000
  46.2880000  38.0140000  92.5900000  45.4430000  38.9960000  91.8060000
  86.4800000  73.5010000  67.5750000  86.9420000  73.6050000  68.4060000
  86.5120000  72.5600000  67.3990000  63.0870000  55.8750000  90.5030000
  63.5800000  55.0580000  90.4280000  63.6840000  56.4750000  90.9500000
  55.2030000  41.5720000  69.3620000  56.1600000  41.5940000  69.3600000
  54.9470000  42.2190000  68.7040000  66.1270000  83.3820000  69.0490000
  66.3670000  84.3060000  69.1210000  65.1860000  83.3640000  69.2220000
  83.7200000  55.4520000  81.8640000  82.8620000  55.1480000  82.1600000
  83.5290000  56.0280000  81.1230000  61.5540000  31.0150000  58.2700000
  61.3290000  31.9450000  58.2970000  62.4940000  31.0000000  58.0910000
  50.6620000  84.4910000  56.9420000  50.7250000  85.3870000  57.2710000
  50.5060000  84.5900000  56.0030000  73.6340000  75.9110000  88.1130000
  74.0940000  75.6840000  88.9210000  73.6070000  76.8680000  88.1130000
  82.3580000  68.3720000  88.5980000  83.2670000  68.0730000  88.6090000
  82.4050000  69.2720000  88.2750000  42.2000000  60.9490000  80.4740000
  42.3580000  60.1430000  80.9650000  41.6170000  61.4610000  81.0340000
  62.8290000  50.5750000  88.3140000  62.2540000  50.8420000  89.0310000
  63.6900000  50.9180000  88.5560000  65.3160000  72.6010000  56.6560000
  64.9820000  71.8920000  56.1070000  66.1350000  72.8650000  56.2360000
  78.1470000  34.3460000  95.6030000  78.2210000  34.0220000  96.5000000
  78.0080000  33.5600000  95.0740000  43.3700000  65.8360000  59.9660000
  42.4400000  66.0580000  59.9180000  43.3880000  64.9560000  60.3420000
  56.2590000  43.0040000  82.6580000  56.9590000  43.5840000  82.3600000
  55.4850000  43.2940000  82.1760000  70.7040000  76.7480000  92.7270000
  71.1230000  77.0460000  91.9190000  71.1550000  77.2300000  93.4210000
  66.9660000  75.6960000  73.0120000  66.7950000  76.6360000  73.0670000
  66.4880000  75.4100000  72.2340000  42.0040000  35.1500000  87.4680000
  42.1100000  34.3540000  87.9880000  42.7660000  35.1620000  86.8880000
  31.0600000  87.5190000  56.2620000  31.2880000  88.4110000  56.0000000
  31.8570000  87.0120000  56.1050000  50.9160000  74.3420000  89.7890000
  51.8290000  74.0560000  89.8320000  50.4100000  73.5300000  89.7800000
  50.6700000  37.7490000  82.9240000  50.1060000  37.8950000  82.1650000
  51.5600000  37.8490000  82.5850000  31.0000000  75.6130000  65.2800000
  31.1370000  75.7170000  66.2210000  31.1800000  76.4800000  64.9140000
  55.8710000  78.6050000  88.3880000  55.7730000  77.8760000  89.0010000
  56.7990000  78.5960000  88.1510000  58.3720000  44.2200000  94.1680000
  57.9820000  43.3530000  94.0650000  59.1730000  44.0660000  94.6700000
  50.1100000  40.5090000  95.8890000  49.5740000  39.7780000  95.5830000
  49.9860000  41.1900000  95.2270000  83.8210000  72.1160000  60.0300000
  83.9880000  71.2140000  60.3050000  82.8660000  72.1840000  59.9980000
  49.5290000  52.3760000  71.7630000  50.1850000  52.7390000  71.1670000
  48.9150000  53.0960000  71.9100000  68.0410000  66.7090000  83.3060000
  68.1670000  65.9900000  82.6870000  68.1270000  66.3020000  84.1680000
  52.1300000  33.6580000  91.5020000  52.4490000  33.7680000  92.3970000
  52.9230000  33.6150000  90.9670000  88.9710000  43.1660000  80.4060000
  88.0550000  42.9440000  80.5690000  88.9680000  44.1150000  80.2730000
  47.8280000  56.7050000  78.7410000  47.6770000  57.5000000  79.2510000
  47.4570000  56.8980000  77.8800000  82.9090000  31.9310000  56.8240000
  82.4940000  32.1850000  56.0000000  82.7050000  31.0000000  56.9180000
  88.4590000  53.2000000  82.6420000  88.9870000  53.9980000  82.6470000
  89.0000000  52.5570000  82.1830000  55.0180000  89.0000000  66.5480000
  54.7220000  88.1650000  66.1860000  55.7250000  88.7640000  67.1490000
  71.9540000  36.4670000  73.8030000  72.7910000  36.9310000  73.7970000
  71.3000000  37.1490000  73.6470000  88.1280000  58.7140000  79.8790000
  89.0000000  58.3930000  79.6500000  88.2920000  59.4520000  80.4670000
  48.4230000  71.7940000  60.2000000  48.8210000  72.0400000  61.0350000
  48.3430000  72.6190000  59.7200000  48.8300000  55.5300000  59.6950000
  48.3950000  55.6000000  58.8460000  49.6760000  55.1270000  59.4980000
  68.7210000  72.8770000  74.4940000  69.0800000  72.1250000  74.9660000
  68.1110000  73.2800000  75.1130000  45.8000000  73.6860000  58.4590000
  46.6840000  73.5710000  58.1110000  45.9170000  73.7130000  59.4080000
  42.7270000  43.4220000  73.2470000  42.6040000  44.3680000  73.1680000
  43.0850000  43.3000000  74.1270000  86.5810000  40.7930000  58.3000000
  86.2170000  41.6770000  58.2760000  85.8720000  40.2500000  58.6450000
  38.4620000  77.2910000  70.6670000  37.6360000  76.9480000  70.3280000
  38.9140000  76.5230000  71.0180000  59.1440000  76.7840000  58.8580000
  59.3460000  77.7070000  59.0090000  58.5870000  76.7840000  58.0800000
  73.8740000  66.2600000  56.0600000  72.9990000  66.6420000  56.0000000
  73.7230000  65.3140000  56.0650000  81.4050000  61.3490000  60.0570000
  80.7710000  62.0630000  60.1220000  80.8720000  60.5640000  59.9340000
  58.7000000  82.8090000  86.0480000  59.6480000  82.8800000  85.9410000
  58.4170000  82.2500000  85.3240000  77.2790000  31.0680000  90.8320000
  77.3760000  31.0000000  89.8830000  77.3760000  32.0020000  91.0180000
  33.6660000  76.5730000  83.4720000  33.0800000  77.0720000  82.9040000
  33.5670000  76.9780000  84.3340000  33.2560000  31.9470000  66.4310000
  32.4180000  32.3220000  66.7010000  33.1130000  31.0000000  66.4540000
  82.5700000  58.7160000  84.9970000  83.5120000  58.5660000  84.9190000
  82.1730000  58.0470000  84.4390000  75.1910000  70.2140000  63.0150000
  74.3610000  70.2010000  63.4930000  75.0910000  70.9250000  62.3820000
  56.0510000  37.5750000  58.0230000  56.2830000  37.9420000  58.8760000
  55.7060000  38.3180000  57.5280000  47.6580000  88.0560000  68.6460000
  47.6550000  89.0000000  68.8050000  46.7360000  87.8310000  68.5210000
  76.4660000  86.2510000  69.5210000  77.3800000  86.3950000  69.2760000
  75.9820000  86.3290000  68.6980000  47.1100000  75.4990000  67.1560000
  47.5910000  76.2560000  66.8210000  47.6240000  74.7430000  66.8720000
  54.0520000  38.3890000  89.0900000  53.4460000  38.0310000  89.7380000
  54.8680000  37.9090000  89.2340000  39.7370000  71.9510000  89.3420000
  40.6830000  71.9700000  89.2010000  39.6150000  72.3480000  90.2060000
  62.4700000  50.9880000  62.6100000  62.3820000  51.9340000  62.4900000
  62.0780000  50.8170000  63.4670000  44.7350000  85.5820000  78.3420000
  44.0220000  84.9600000  78.4830000  44.2960000  86.4120000  78.1530000
  67.5270000  70.7450000  60.3550000  67.0020000  71.5360000  60.4720000
  68.4090000  70.9980000  60.6280000  49.7210000  79.7310000  78.8190000
  49.5660000  79.1600000  79.5710000  48.9710000  79.5790000  78.2430000
  51.5500000  51.6980000  63.2950000  50.9890000  52.4010000  63.6220000
  51.5370000  51.8040000  62.3430000  52.8250000  67.5250000  66.6150000
  52.4820000  67.2070000  67.4500000  53.1610000  68.4000000  66.8110000
  55.7550000  68.4710000  82.3460000  56.6600000  68.2020000  82.5040000
  55.3020000  67.6620000  82.1080000  58.3880000  34.0580000  92.7280000
  57.6460000  34.6560000  92.8220000  58.9530000  34.2570000  93.4750000
  66.6730000  31.0000000  94.1720000  65.8810000  31.1620000  94.6830000
  66.3770000  31.0090000  93.2610000  50.6400000  35.4030000  81.8310000
  51.3680000  35.7070000  81.2890000  50.9250000  34.5500000  82.1600000
  75.7180000  38.9960000  83.0980000  75.0900000  38.2740000  83.0990000
  76.5750000  38.5680000  83.1020000  74.1580000  41.9380000  68.3190000
  74.4790000  42.3940000  69.0970000  74.9200000  41.8820000  67.7420000
  60.5380000  79.7790000  84.7020000  60.7780000  80.7060000  84.7120000
  59.6140000  79.7740000  84.4530000  78.0860000  33.4560000  56.0530000
  78.8820000  33.9860000  56.0710000  77.9210000  33.2390000  56.9710000
  61.7690000  75.9110000  65.1470000  62.5040000  76.5150000  65.0440000
  61.3540000  76.1770000  65.9690000  60.4500000  69.3730000  65.3280000
  61.2130000  68.8030000  65.2320000  60.1680000  69.5490000  64.4310000
  31.0350000  66.9950000  86.5550000  31.0000000  66.1510000  86.1060000
  31.9070000  67.0210000  86.9500000  89.0000000  66.0160000  95.7870000
  88.9870000  65.3780000  96.5000000  88.2150000  65.8200000  95.2750000
  62.5960000  34.9970000  80.4580000  62.3050000  34.2270000  80.9470000
  61.8070000  35.5300000  80.3580000  86.4380000  78.3790000  89.4820000
  85.7810000  77.7370000  89.2150000  86.4800000  78.2980000  90.4350000
  61.6490000  44.9390000  68.5640000  62.2300000  44.1790000  68.5630000
  61.2890000  44.9650000  69.4510000  79.5020000  31.6360000  81.4400000
  79.4470000  31.0000000  82.1530000  79.6410000  32.4760000  81.8780000
  75.5770000  67.4330000  70.7380000  74.6510000  67.2190000  70.8530000
  75.5910000  68.3830000  70.6200000  31.0040000  80.6560000  86.0690000
  31.0110000  81.5710000  85.7890000  31.0000000  80.1560000  85.2530000
  60.1080000  86.4200000  62.8650000  60.9920000  86.6580000  62.5850000
  59.5680000  86.5430000  62.0830000  33.6030000  34.8910000  82.2270000
  34.1710000  35.6520000  82.3460000  32.7170000  35.2520000  82.2210000
  49.7110000  56.7030000  76.6880000  50.5380000  57.0920000  76.9690000
  49.7830000  55.7800000  76.9330000  47.6600000  37.0260000  58.4160000
  47.5860000  37.8920000  58.0140000  48.6010000  36.9010000  58.5450000
  33.9510000  69.5630000  69.1320000  34.4600000  70.1400000  69.7020000
  33.2040000  70.0950000  68.8570000  46.3200000  62.7780000  79.6530000
  46.3460000  63.4470000  80.3360000  47.2170000  62.4480000  79.6050000
  31.0000000  87.3080000  91.4360000  31.8560000  87.7350000  91.4190000
  31.1990000  86.3730000  91.4840000  41.7240000  57.5570000  68.0730000
  41.5840000  56.6370000  68.2970000  42.0980000  57.5350000  67.1910000
  37.0720000  53.8780000  61.1800000  37.6490000  53.2670000  60.7230000
  36.9670000  54.6100000  60.5720000  75.3760000  84.3480000  92.7760000
  74.5430000  84.7530000  93.0190000  76.0150000  84.7390000  93.3720000
  54.6210000  56.0120000  87.3790000  55.1790000  56.6660000  86.9600000
  54.6740000  56.2140000  88.3130000  58.4520000  69.6710000  56.8730000
  59.3390000  69.7980000  57.2080000  58.5760000  69.2980000  56.0000000
  67.4340000  56.2960000  93.9870000  66.8390000  56.9920000  93.7070000
  67.8140000  56.6200000  94.8030000  88.5600000  71.1450000  89.1720000
  87.7140000  70.6990000  89.1370000  88.9400000  70.8730000  90.0080000
  56.1470000  55.0510000  92.1080000  56.3290000  54.3140000  92.6920000
  56.7500000  55.7380000  92.3940000  86.3310000  62.3610000  82.1770000
  86.1300000  61.8610000  81.3870000  85.7860000  61.9640000  82.8570000
  52.7820000  76.4920000  81.1970000  52.5480000  76.6260000  82.1160000
  51.9730000  76.6690000  80.7160000  45.4970000  63.6380000  94.7470000
  44.9000000  62.9180000  94.5450000  46.1820000  63.2390000  95.2840000
  32.5090000  75.0730000  96.5000000  32.9170000  75.9390000  96.5000000
  31.5680000  75.2510000  96.5000000  53.7810000  78.0260000  75.3620000
  52.9340000  78.3920000  75.6160000  54.1660000  77.7220000  76.1840000
  50.7220000  47.8270000  82.1580000  50.6270000  48.3100000  82.9780000
  50.0130000  48.1530000  81.6030000  57.8500000  55.4780000  56.8560000
  56.9540000  55.1480000  56.7880000  58.0280000  55.8680000  56.0000000
  88.8740000  70.4660000  63.5730000  88.9680000  70.5170000  64.5240000
  89.0000000  69.5390000  63.3680000  77.8770000  73.9190000  65.9870000
  77.3420000  74.6630000  65.7130000  78.2380000  74.1820000  66.8340000
  39.9890000  57.4410000  56.0000000  40.9300000  57.4570000  56.1730000
  39.6680000  56.6870000  56.4950000  73.1980000  31.0840000  79.6340000
  74.0000000  31.3510000  80.0840000  73.3610000  31.2870000  78.7130000
  74.5810000  39.3930000  68.4860000  73.9280000  39.4870000  69.1790000
  75.4160000  39.5770000  68.9160000  34.1190000  41.7090000  69.1810000
  33.6020000  40.9040000  69.1950000  33.6110000  42.3120000  68.6370000
  77.2690000  57.8960000  65.6340000  77.6650000  58.7590000  65.7580000
  76.3290000  58.0690000  65.5840000  52.5800000  68.7010000  61.2040000
  52.6550000  67.7500000  61.2800000  53.1300000  69.0430000  61.9090000
  77.0190000  55.3730000  63.8630000  77.8440000  55.8570000  63.8300000
  76.3440000  56.0510000  63.9030000  88.0570000  84.3650000  95.6380000
  88.2230000  83.9850000  96.5000000  87.4310000  83.7670000  95.2290000
  59.6260000  86.6380000  90.2510000  60.4330000  86.3200000  89.8470000
  58.9440000  86.4510000  89.6060000  61.4310000  69.9410000  87.9110000
  62.2940000  70.3540000  87.9120000  61.6150000  69.0010000  87.9100000
  71.1230000  55.2650000  66.2060000  70.7990000  54.6410000  66.8550000
  71.6950000  55.8520000  66.7010000  78.0360000  79.4090000  83.6560000
  77.3920000  78.8110000  83.2780000  78.2370000  79.0340000  84.5140000
  39.4760000  47.6570000  58.6050000  40.4330000  47.6620000  58.6410000
  39.2330000  48.5830000  58.5850000  79.8910000  36.5110000  86.2230000
  80.5210000  36.0340000  86.7640000  80.3060000  36.5630000  85.3620000
  50.2160000  46.9610000  66.8820000  49.8710000  47.6070000  67.4970000
  49.9950000  47.3100000  66.0180000  71.3570000  79.4670000  83.8780000
  70.5810000  78.9370000  84.0580000  71.4330000  80.0470000  84.6360000
  74.2210000  79.2580000  61.6290000  73.5220000  79.8200000  61.2960000
  75.0290000  79.7060000  61.3770000  54.1270000  47.6760000  96.3360000
  54.4760000  48.5510000  96.5000000  54.8670000  47.0890000  96.4910000
  62.1650000  50.7970000  91.5790000  61.2180000  50.8960000  91.4840000
  62.5190000  51.6630000  91.3780000  57.0390000  67.5970000  92.0380000
  57.1980000  66.9200000  91.3810000  57.8630000  68.0830000  92.0850000
  54.9890000  88.0710000  89.8670000  55.2580000  88.9820000  89.9820000
  55.8070000  87.5970000  89.7130000  77.7050000  67.7500000  68.5520000
  78.1190000  67.5920000  69.4000000  77.2690000  68.5970000  68.6520000
  77.3320000  67.4800000  94.0590000  76.6400000  66.9170000  93.7120000
  78.1460000  67.0420000  93.8080000  83.8460000  75.8970000  75.4810000
  83.9670000  76.7280000  75.9410000  83.1240000  75.4700000  75.9430000
  41.5590000  83.3020000  85.6400000  40.7310000  83.3310000  85.1610000
  41.3030000  83.1920000  86.5560000  61.8510000  43.4020000  85.9830000
  61.9060000  43.3900000  86.9380000  61.1790000  44.0560000  85.7890000
  74.1750000  83.3650000  70.9240000  73.5050000  83.9580000  71.2640000
  74.7250000  83.1650000  71.6820000  35.5580000  70.3070000  85.0520000
  34.6420000  70.5490000  85.1880000  35.9730000  71.1090000  84.7320000
  41.8180000  41.4350000  82.5270000  40.8970000  41.6670000  82.6450000
  41.9020000  41.2530000  81.5910000  63.2820000  31.0180000  88.0290000
  63.2980000  31.0000000  88.9850000  63.0360000  31.9160000  87.8090000
  82.6890000  65.0630000  93.6970000  83.2910000  65.5500000  94.2580000
  82.8210000  65.4320000  92.8240000  69.9000000  50.7820000  69.6500000
  69.1190000  50.4970000  70.1240000  70.5250000  50.0660000  69.7620000
  74.4640000  31.1600000  96.3120000  74.4870000  32.0470000  95.9550000
  73.5390000  31.0000000  96.5000000  75.7090000  72.4930000  60.3280000
  76.3560000  72.1840000  59.6940000  76.1530000  73.1990000  60.7980000
  67.6170000  46.9900000  56.0000000  68.5680000  47.0990000  56.0010000
  67.2730000  47.8840000  56.0140000  65.3960000  88.5300000  64.3250000
  64.9590000  89.0000000  65.0350000  65.0870000  88.9590000  63.5270000
  37.9690000  73.8910000  68.9530000  38.2620000  72.9880000  68.8320000
  38.1810000  74.0930000  69.8640000  69.3400000  83.2570000  73.1720000
  69.0410000  83.4090000  74.0680000  68.5350000  83.1890000  72.6580000
  42.5700000  55.9650000  79.8630000  42.6230000  56.1810000  78.9320000
  41.7180000  56.3030000  80.1390000  60.0230000  54.6570000  64.4310000
  59.6730000  53.8120000  64.7110000  59.2520000  55.1640000  64.1770000
  82.7270000  72.5590000  81.3040000  82.6400000  71.6170000  81.4490000
  82.4430000  72.9570000  82.1270000  77.9350000  52.8730000  59.1600000
  78.4820000  52.1110000  59.3520000  78.5590000  53.5740000  58.9710000
  47.6170000  35.3470000  91.9580000  47.1690000  34.5020000  91.9140000
  48.4920000  35.1730000  91.6100000  88.9580000  35.9520000  91.9330000
  89.0000000  36.7260000  91.3710000  88.8920000  36.3040000  92.8210000
  45.4390000  77.6770000  77.3060000  45.6520000  76.7470000  77.2380000
  45.3440000  77.9680000  76.3980000  88.3760000  51.6360000  70.7690000
  87.5790000  51.2090000  71.0810000  89.0000000  50.9200000  70.6450000
  40.0330000  87.0020000  74.6700000  40.6810000  86.3030000  74.7560000
  39.1950000  86.5740000  74.8470000  64.7450000  66.2280000  92.0210000
  64.5410000  67.1300000  92.2650000  65.4390000  65.9660000  92.6280000
  83.5130000  33.4070000  64.6070000  84.2820000  32.9820000  64.2290000
  83.7470000  34.3350000  64.6500000  83.7070000  52.6510000  60.3260000
  83.8600000  53.1770000  61.1100000  83.3630000  53.2730000  59.6840000
  84.6410000  43.9030000  59.3450000  84.0340000  44.5660000  59.0160000
  85.4610000  44.3770000  59.4850000  64.5400000  61.9440000  80.2450000
  65.2560000  61.9230000  80.8800000  64.6330000  61.1280000  79.7520000
  65.2480000  31.5850000  56.6730000  64.9000000  31.0000000  56.0000000
  65.4980000  32.3770000  56.1980000  88.9570000  88.2690000  58.0710000
  88.9520000  89.0000000  57.4530000  89.0000000  88.6840000  58.9330000
  43.9460000  47.4190000  72.2810000  43.7700000  46.9240000  73.0820000
  43.0880000  47.5160000  71.8670000  79.4710000  84.8070000  60.1440000
  80.2070000  85.0880000  59.6020000  78.7300000  85.3270000  59.8310000
  78.1360000  60.7970000  94.7760000  77.8100000  61.6960000  94.7940000
  77.3840000  60.2730000  94.4990000  85.4300000  64.3690000  64.2590000
  86.3170000  64.7070000  64.1380000  85.0700000  64.8910000  64.9770000
  78.9980000  48.5270000  89.3810000  78.2100000  47.9840000  89.3620000
  78.8960000  49.1250000  88.6410000  62.5560000  72.5860000  59.9150000
  62.7690000  73.0430000  60.7280000  61.9970000  71.8590000  60.1880000
  80.9670000  77.3960000  65.4890000  81.6260000  76.7160000  65.3530000
  81.3170000  78.1640000  65.0370000  46.8840000  50.4630000  59.1250000
  47.1060000  50.4220000  60.0550000  46.3360000  49.6930000  58.9750000
  54.1180000  52.6030000  67.2000000  54.2270000  52.9980000  68.0650000
  54.5670000  51.7600000  67.2630000  88.6130000  38.2610000  76.2210000
  89.0000000  37.4000000  76.0650000  89.0000000  38.8230000  75.5500000
  65.6090000  50.6980000  81.8110000  64.9180000  50.0580000  81.6430000
  66.1280000  50.3120000  82.5170000  72.0950000  58.2990000  91.4660000
  72.8880000  57.8580000  91.7700000  71.4680000  57.5910000  91.3190000
  58.4730000  67.3690000  76.7390000  59.3400000  67.6560000  76.4510000
  58.4030000  67.6860000  77.6400000  38.7200000  31.5940000  64.9730000
  38.9180000  32.4470000  64.5860000  38.6570000  31.0000000  64.2250000
  72.4010000  76.1670000  60.0280000  72.1510000  77.0340000  60.3480000
  71.5740000  75.6900000  59.9540000  65.3350000  64.9760000  63.5780000
  64.6750000  64.2840000  63.5370000  66.1160000  64.5420000  63.9210000
  48.4720000  72.3640000  67.5770000  49.2050000  71.7490000  67.5740000
  47.6920000  71.8070000  67.5790000  86.3360000  55.1640000  70.2690000
  85.5520000  55.7130000  70.2880000  86.8740000  55.4880000  70.9920000
  52.8880000  32.1170000  84.3120000  52.6020000  31.2110000  84.1930000
  52.2020000  32.6420000  83.8990000  54.3570000  49.6750000  94.0590000
  53.9000000  48.8340000  94.0840000  53.6590000  50.3260000  93.9860000
  73.8160000  52.2740000  93.9900000  73.7860000  53.2300000  93.9630000
  72.9000000  52.0070000  94.0680000  31.0000000  84.2170000  86.3830000
  31.7480000  84.2270000  86.9800000  31.0250000  85.0720000  85.9520000
  87.9370000  73.7490000  57.2690000  88.8010000  73.9440000  57.6320000
  87.7680000  72.8420000  57.5260000  60.4460000  54.8660000  60.8290000
  61.2790000  54.4920000  61.1170000  60.4820000  55.7790000  61.1150000
  70.4630000  42.1170000  92.1140000  70.3090000  41.1720000  92.1000000
  71.4170000  42.2040000  92.1310000  77.6840000  88.9540000  59.9910000
  77.4910000  88.0190000  60.0540000  78.6370000  88.9970000  59.9030000
  51.9930000  48.9570000  63.5410000  52.8480000  49.2510000  63.2280000
  52.0420000  48.0010000  63.5090000  43.1470000  58.3300000  90.5000000
  44.1010000  58.3810000  90.5510000  42.8520000  59.2320000  90.6230000
  80.1700000  55.5510000  69.5580000  79.9560000  56.1460000  70.2750000
  80.7640000  56.0520000  68.9990000  42.3120000  81.0990000  61.0020000
  43.1430000  81.3910000  60.6260000  41.7030000  81.8160000  60.8240000
  71.5290000  31.0000000  74.8910000  71.6420000  31.8900000  74.5590000
  71.3230000  31.1140000  75.8190000  42.3110000  65.9310000  56.0230000
  43.1670000  65.5040000  56.0000000  41.6820000  65.2080000  56.0250000
  74.9810000  78.6530000  90.0110000  74.0540000  78.6990000  89.7780000
  75.2100000  77.7300000  89.9020000  52.0350000  56.9920000  88.1600000
  52.0810000  56.8350000  87.2170000  52.6600000  57.7010000  88.3160000
  62.4580000  49.7090000  71.4710000  61.6550000  50.2290000  71.4370000
  63.1610000  50.3550000  71.5380000  35.2320000  54.8420000  65.1150000
  35.3470000  54.0730000  65.6730000  34.2840000  54.9770000  65.0860000
  47.8410000  75.1180000  62.9960000  48.0970000  74.3070000  62.5570000
  48.3910000  75.1510000  63.7790000  60.2680000  66.3700000  86.3950000
  60.7420000  66.8010000  87.1050000  60.4540000  66.9050000  85.6220000
  69.9710000  41.4200000  68.3640000  69.4720000  42.2360000  68.3670000
  70.8840000  41.6950000  68.4500000  72.7730000  78.0310000  72.4950000
  73.6120000  78.4110000  72.7530000  72.4670000  77.5720000  73.2780000
  85.5220000  34.9370000  56.4880000  84.7460000  35.2140000  56.0000000
  85.8620000  35.7440000  56.8760000  32.5650000  77.4590000  59.5610000
  31.6640000  77.2540000  59.3090000  32.9950000  76.6070000  59.6330000
  77.8150000  37.1140000  79.9000000  76.9920000  36.6490000  79.7470000
  78.3580000  36.8970000  79.1430000  68.3170000  47.8400000  86.7440000
  67.3820000  47.6750000  86.8650000  68.7270000  46.9810000  86.8450000
  43.1410000  51.4070000  60.4620000  42.5650000  52.1400000  60.6790000
  43.3020000  50.9720000  61.2990000  31.0000000  78.8520000  70.3730000
  31.5370000  79.3080000  69.7260000  31.3070000  77.9460000  70.3440000
  35.2950000  83.8650000  85.6110000  35.3520000  84.6670000  86.1300000
  36.1710000  83.7560000  85.2400000  60.3530000  84.6160000  87.9300000
  60.3120000  85.2740000  87.2360000  59.4380000  84.4020000  88.1120000
  79.1400000  55.3390000  56.0140000  79.6020000  56.1770000  56.0000000
  79.2450000  55.0210000  56.9110000  49.0540000  70.7460000  86.9440000
  48.2400000  71.0320000  86.5310000  49.3230000  69.9790000  86.4380000
  42.9920000  31.4680000  85.3840000  43.3640000  32.3480000  85.4260000
  43.4000000  31.0000000  86.1140000  50.4340000  49.3610000  77.0160000
  50.2040000  48.4710000  77.2840000  50.0420000  49.4580000  76.1470000
  82.7260000  52.1720000  91.1560000  82.4390000  51.2600000  91.1480000
  83.6060000  52.1500000  90.7780000  61.2700000  83.6250000  63.3610000
  61.1780000  84.0230000  62.4960000  61.1540000  84.3520000  63.9730000
  66.4610000  38.8060000  81.2010000  65.6470000  38.6780000  81.6890000
  67.1530000  38.5960000  81.8280000  50.1770000  51.9980000  96.4470000
  49.8880000  52.3470000  95.6040000  51.1030000  52.2360000  96.5000000
  49.5940000  49.9580000  66.4610000  49.1710000  50.5750000  67.0570000
  48.8700000  49.5420000  65.9930000  83.5910000  73.9010000  92.3110000
  83.9850000  74.6090000  91.8010000  83.7430000  73.1150000  91.7870000
  80.6980000  61.3370000  56.8910000  80.3940000  60.6420000  57.4750000
  80.5160000  61.0070000  56.0110000  56.2200000  73.7170000  65.0060000
  56.8920000  74.1320000  64.4650000  55.6740000  73.2370000  64.3830000
  66.9870000  42.5020000  68.3010000  66.0670000  42.2760000  68.4320000
  67.0960000  42.5280000  67.3500000  73.6560000  58.9520000  60.9670000
  73.1180000  59.7110000  61.1920000  73.0240000  58.2570000  60.7810000
  75.2670000  83.8510000  79.0010000  75.3790000  83.6750000  79.9350000
  76.1590000  83.9620000  78.6690000  42.6340000  45.3450000  62.1080000
  43.4560000  45.8340000  62.1380000  41.9540000  46.0190000  62.0820000
  63.9380000  35.1200000  90.3370000  63.2720000  35.1110000  89.6510000
  63.6260000  35.7690000  90.9670000  57.5920000  84.7190000  73.1540000
  57.1130000  85.2990000  73.7450000  58.5140000  84.9220000  73.3130000
  57.3880000  60.6620000  82.0010000  57.4520000  60.6980000  82.9550000
  56.6610000  60.0640000  81.8310000  78.2740000  65.3300000  86.9290000
  78.3810000  65.7580000  86.0790000  77.6150000  64.6540000  86.7750000
  38.8680000  83.4820000  91.7680000  38.1610000  83.0620000  91.2790000
  39.6410000  82.9490000  91.5770000  41.0010000  48.5120000  86.9180000
  41.6120000  47.7780000  86.8620000  40.1340000  48.1050000  86.9050000
  63.2040000  40.9120000  63.6900000  62.9440000  40.4920000  62.8710000
  62.8660000  40.3340000  64.3750000  34.3000000  88.9780000  56.3150000
  33.5460000  88.9930000  56.9030000  35.0590000  88.9990000  56.8980000
  76.1480000  51.0690000  68.0180000  75.4350000  51.6080000  68.3600000
  76.3690000  51.4690000  67.1760000  83.5740000  88.9710000  64.3020000
  83.8770000  89.0000000  65.2090000  82.6470000  88.7390000  64.3650000
  71.2640000  58.7810000  80.0790000  71.6560000  58.0070000  80.4830000
  71.0170000  58.4930000  79.2000000  62.1440000  47.7260000  69.5290000
  61.4980000  48.4310000  69.4890000  62.5220000  47.6960000  68.6500000
  74.2090000  53.3380000  62.9500000  75.1050000  53.4400000  63.2720000
  73.6700000  53.7990000  63.5930000  73.6200000  67.7740000  61.2490000
  74.5220000  67.5080000  61.0720000  73.1280000  66.9540000  61.2750000
  84.4630000  82.6840000  96.4280000  83.7780000  83.3510000  96.4660000
  83.9920000  81.8530000  96.5010000  55.0830000  44.4370000  61.8950000
  54.9700000  44.2110000  62.8180000  55.9990000  44.2310000  61.7080000
  53.6850000  73.4800000  60.5020000  53.6550000  72.5610000  60.7670000
  54.3740000  73.8640000  61.0450000  55.7490000  40.7770000  57.9810000
  55.0610000  41.4340000  57.8800000  56.4960000  41.1350000  57.5020000
  84.1010000  56.2430000  84.2050000  84.9810000  56.5150000  83.9470000
  84.2260000  55.7720000  85.0290000  32.8480000  88.4160000  69.3530000
  32.1360000  89.0000000  69.6140000  33.5850000  89.0000000  69.1760000
  72.3510000  77.2860000  77.4970000  71.6290000  77.8860000  77.6810000
  72.6100000  77.4910000  76.5980000  38.4170000  75.1540000  58.2880000
  38.3390000  75.7050000  59.0660000  37.9190000  74.3650000  58.5020000
  67.3960000  85.4220000  71.2970000  66.8420000  84.7170000  71.6330000
  68.0860000  84.9720000  70.8090000  39.3270000  45.4430000  60.3380000
  39.5290000  45.1030000  61.2090000  40.1570000  45.3950000  59.8630000
  62.9710000  89.0000000  96.5000000  62.6940000  88.0840000  96.5000000
  63.9280000  88.9620000  96.5000000  44.2260000  58.0930000  70.3160000
  44.1570000  57.5950000  69.5020000  43.3920000  57.9420000  70.7620000
  46.4510000  76.8520000  69.4240000  46.4380000  77.8060000  69.5060000
  47.3800000  76.6280000  69.3700000  86.6430000  43.4550000  72.8550000
  86.3130000  43.2620000  71.9770000  86.0050000  44.0680000  73.2220000
  55.0280000  44.4790000  59.2860000  54.1190000  44.2110000  59.4130000
  55.5260000  43.6620000  59.3200000  39.0340000  41.8360000  79.8790000
  39.2610000  41.6240000  78.9740000  38.0880000  41.6940000  79.9290000
  49.6630000  56.7570000  69.5120000  49.1980000  55.9210000  69.5120000
  48.9690000  57.4180000  69.5120000  35.2830000  67.9170000  86.8030000
  35.2840000  68.8320000  87.0850000  35.3340000  67.4150000  87.6170000
  48.1400000  87.0070000  81.2870000  47.8060000  87.0840000  80.3930000
  47.3580000  86.8840000  81.8250000  45.4140000  65.8670000  73.4100000
  44.7040000  65.3920000  73.8430000  45.7690000  66.4410000  74.0900000
  33.2950000  40.4160000  63.6190000  33.1020000  39.5820000  64.0450000
  32.9740000  41.0790000  64.2310000  88.5470000  57.7170000  56.0000000
  89.0000000  57.4570000  56.8020000  87.6400000  57.8600000  56.2730000
  88.4180000  78.3300000  73.1170000  89.0000000  78.2930000  72.3580000
  89.0000000  78.4980000  73.8580000  74.3040000  74.0350000  78.1220000
  75.1800000  73.6510000  78.1600000  74.4570000  74.9750000  78.0280000
  44.5850000  55.7630000  91.7490000  43.7220000  56.1100000  91.5260000
  45.1210000  56.5400000  91.9130000  79.9050000  33.4820000  63.7770000
  80.8000000  33.3690000  64.0940000  79.9860000  33.4750000  62.8230000
  88.9890000  41.1480000  56.0590000  89.0000000  40.1910000  56.0400000
  88.0610000  41.3780000  56.0040000  46.4490000  39.5400000  65.6030000
  46.6860000  38.6430000  65.3660000  46.2270000  39.4910000  66.5330000
  57.4290000  31.1070000  80.1970000  57.8170000  31.0000000  81.0650000
  58.1630000  31.0010000  79.5910000  35.7940000  36.8770000  80.1780000
  35.8520000  37.7410000  80.5860000  36.3200000  36.9520000  79.3810000
  82.1620000  33.2050000  69.5820000  82.4930000  34.0290000  69.9380000
  81.9620000  33.4020000  68.6670000  41.3720000  31.0670000  64.6840000
  41.6130000  31.9800000  64.5290000  41.2840000  31.0000000  65.6350000
  31.7570000  44.8890000  68.3690000  32.3900000  44.8310000  69.0840000
  31.0000000  44.3890000  68.6770000  63.4680000  88.8290000  74.5740000
  63.2230000  87.9310000  74.7960000  63.0250000  89.0000000  73.7420000
  35.7910000  31.4260000  74.9540000  35.9830000  32.3150000  75.2540000
  35.3860000  31.0000000  75.7100000  61.9530000  69.7630000  56.5610000
  61.6360000  69.0470000  56.0110000  62.5600000  70.2470000  56.0000000
  65.4500000  61.7660000  94.7340000  65.2490000  61.5390000  93.8270000
  65.9400000  62.5870000  94.6730000  32.8960000  61.0110000  94.0720000
  33.4730000  60.2480000  94.0720000  33.4670000  61.7440000  93.8420000
  38.5640000  33.6600000  93.4990000  39.0860000  34.0780000  94.1830000
  39.2090000  33.2940000  92.8940000  38.6640000  61.8030000  64.6990000
  38.1240000  61.7470000  65.4870000  38.7810000  62.7430000  64.5540000
  51.2280000  50.2220000  73.5100000  50.3620000  50.6280000  73.5370000
  51.0530000  49.2810000  73.5350000  65.6480000  76.1660000  95.8590000
  65.7920000  75.9580000  94.9360000  65.1800000  77.0010000  95.8470000
  40.0190000  56.5790000  61.5810000  39.7050000  56.5490000  62.4850000
  39.7510000  55.7400000  61.2050000  37.9500000  42.5620000  63.0100000
  38.2820000  42.7000000  63.8970000  38.6960000  42.7530000  62.4410000
  36.3980000  83.0510000  87.7260000  36.8960000  82.5430000  88.3660000
  35.5490000  83.1970000  88.1440000  57.1850000  40.9980000  80.0930000
  56.8150000  41.2890000  80.9270000  57.6970000  40.2210000  80.3160000
  81.7800000  37.0350000  63.9820000  82.6120000  36.5810000  64.1160000
  82.0290000  37.9170000  63.7060000  31.1320000  35.4390000  74.9670000
  31.0000000  34.8070000  74.2610000  32.0760000  35.4290000  75.1250000
  53.9040000  74.4310000  56.0000000  54.8570000  74.5230000  56.0060000
  53.7540000  73.4870000  56.0480000  88.4150000  51.2730000  73.6340000
  88.9970000  50.6520000  74.0710000  89.0000000  51.9480000  73.2900000
  61.5840000  48.4030000  79.5500000  61.5880000  48.2960000  78.5990000
  60.7560000  48.0140000  79.8320000  43.8340000  86.2730000  73.3430000
  44.1280000  85.3760000  73.5020000  42.9790000  86.3240000  73.7710000
  79.9640000  40.5910000  76.9070000  80.4330000  41.1500000  76.2880000
  80.0100000  41.0640000  77.7390000  50.4700000  31.5860000  61.8520000
  49.7480000  31.0000000  62.0800000  51.1820000  31.0000000  61.5940000
  72.2650000  40.0810000  96.4450000  71.5840000  40.7510000  96.5000000
  71.7870000  39.2640000  96.2960000  52.5490000  49.4690000  91.6580000
  53.0370000  48.7130000  91.3310000  53.0100000  50.2260000  91.2960000
  31.7980000  69.4930000  78.2550000  31.0000000  69.9340000  77.9660000
  32.4810000  69.8260000  77.6730000  33.4750000  78.0760000  90.4870000
  33.6270000  78.8040000  91.0890000  33.8640000  77.3180000  90.9250000
  85.6170000  64.3500000  95.8650000  85.2640000  65.2370000  95.8020000
  86.3300000  64.4200000  96.5000000  83.9010000  34.2800000  58.9170000
  83.6520000  34.1840000  57.9980000  84.8370000  34.4780000  58.8920000
  31.8340000  45.6110000  65.6660000  32.4030000  46.0250000  65.0170000
  31.0000000  46.0740000  65.5840000  34.4890000  74.1990000  56.5290000
  35.1010000  73.4940000  56.3200000  33.6400000  73.7650000  56.6060000
  65.4650000  79.7910000  82.9300000  64.5540000  80.0750000  82.8620000
  65.9710000  80.6040000  82.9250000  65.0470000  40.3670000  67.1590000
  65.4870000  39.5560000  66.9010000  64.3590000  40.4850000  66.5030000
  76.1970000  35.3660000  74.0500000  75.7170000  35.8820000  73.4020000
  75.8890000  34.4690000  73.9180000  81.3870000  49.1750000  88.0840000
  81.4840000  49.4090000  89.0070000  81.0830000  49.9800000  87.6640000
  82.5250000  50.9380000  65.0410000  81.9040000  51.5350000  65.4590000
  82.8390000  51.4180000  64.2740000  45.8760000  63.1420000  61.2700000
  45.4010000  63.2660000  62.0910000  46.4720000  62.4130000  61.4460000
  88.4670000  49.6890000  76.7330000  89.0000000  49.7590000  77.5250000
  89.0000000  49.1700000  76.1310000  56.5020000  56.0510000  84.0150000
  56.2240000  55.7520000  84.8810000  55.9890000  55.5230000  83.4030000
  63.0270000  56.4550000  76.3560000  62.4060000  56.8950000  75.7760000
  62.5370000  55.7160000  76.7170000  38.0780000  54.5910000  75.6540000
  38.0840000  54.4540000  74.7060000  37.3100000  54.1080000  75.9610000
  38.2440000  37.7300000  82.7530000  38.7070000  37.0550000  83.2480000
  37.4290000  37.3100000  82.4780000  69.4990000  61.9950000  64.5290000
  69.9150000  62.2990000  65.3360000  68.6080000  61.7620000  64.7930000
  74.2800000  62.7620000  67.6470000  75.2360000  62.7440000  67.6120000
  74.0650000  62.4000000  68.5080000  36.6390000  74.1690000  83.2050000
  35.9900000  74.6620000  82.7040000  36.8640000  73.4270000  82.6430000
  58.3320000  67.6080000  94.5010000  57.7570000  68.3700000  94.5760000
  58.2700000  67.1760000  95.3530000  64.1860000  63.2520000  96.5000000
  64.3960000  64.1840000  96.4440000  63.2300000  63.2200000  96.4850000
  47.1410000  36.5490000  82.6800000  46.4350000  37.1940000  82.6310000
  47.8180000  36.8900000  82.0940000  65.2670000  53.7110000  86.4150000
  64.4160000  53.7480000  86.8510000  65.3980000  54.5930000  86.0670000
  32.5020000  58.0810000  81.9120000  33.1060000  58.2090000  81.1800000
  32.9430000  58.4840000  82.6600000  72.1910000  73.0510000  89.1170000
  72.2440000  73.9070000  88.6910000  71.2650000  72.8140000  89.0630000
  85.0230000  55.5290000  56.1900000  85.2200000  55.4080000  57.1190000
  85.3060000  56.4240000  56.0000000  43.3760000  35.1540000  66.9820000
  42.7500000  34.4310000  67.0090000  44.2320000  34.7280000  66.9320000
  58.7000000  61.3490000  74.3270000  59.4610000  60.9490000  73.9060000
  58.7110000  62.2590000  74.0280000  58.8750000  38.2500000  90.3370000
  58.3670000  38.9610000  89.9470000  59.5470000  38.6910000  90.8560000
  37.8590000  64.3930000  58.9260000  37.2900000  65.0070000  58.4610000
  37.9410000  63.6460000  58.3340000  57.1220000  53.6960000  63.8860000
  57.4080000  53.6870000  62.9730000  56.7620000  54.5740000  64.0170000
  69.6300000  62.3860000  91.0630000  68.7670000  62.4140000  90.6500000
  70.0910000  63.1450000  90.7040000  47.2380000  46.6080000  92.1670000
  47.3040000  46.7900000  93.1040000  47.9120000  47.1590000  91.7680000
  87.7970000  72.8270000  75.5240000  87.3100000  72.6520000  76.3290000
  88.6970000  72.9730000  75.8150000  52.3220000  42.8770000  91.2940000
  51.4200000  42.6710000  91.0530000  52.8530000  42.2600000  90.7890000
  45.5930000  61.8630000  56.5650000  44.9800000  61.2880000  56.1070000
  46.3660000  61.8880000  56.0000000  49.5530000  62.1970000  66.1440000
  50.4280000  61.8150000  66.2110000  49.6950000  63.0510000  65.7350000
  31.5900000  71.9700000  93.7950000  31.0260000  71.2900000  94.1640000
  31.0000000  72.7040000  93.6220000  80.8950000  47.3230000  69.2270000
  81.7680000  47.1320000  68.8850000  80.7390000  46.6390000  69.8790000
  37.7930000  38.8710000  72.3480000  37.4040000  38.1410000  71.8660000
  38.4250000  38.4600000  72.9380000  33.5650000  43.7050000  71.3320000
  33.4820000  44.5680000  71.7380000  34.3460000  43.3240000  71.7340000
  46.5580000  39.0410000  88.9300000  46.1540000  38.2310000  89.2390000
  46.7110000  39.5520000  89.7250000  62.9980000  65.2700000  78.6560000
  63.6420000  64.5810000  78.8170000  62.3940000  64.8900000  78.0180000
  72.9270000  34.5040000  66.0940000  73.1680000  35.3590000  65.7370000
  73.7330000  33.9890000  66.0470000  69.0910000  35.7480000  59.2860000
  68.2470000  35.6950000  59.7340000  68.9430000  36.3630000  58.5670000
  77.2030000  79.5670000  86.7850000  76.2630000  79.4370000  86.6610000
  77.3920000  79.1590000  87.6310000  31.0000000  51.7060000  70.9390000
  31.9050000  51.4270000  70.7990000  31.0730000  52.6120000  71.2400000
  46.7130000  51.7250000  96.5000000  47.4440000  52.2030000  96.1090000
  45.9620000  52.3090000  96.3980000  63.1090000  54.1740000  69.1510000
  62.8360000  53.3200000  68.8160000  63.9970000  54.0310000  69.4780000
  42.9930000  71.4910000  61.7320000  42.4070000  71.2240000  61.0240000
  43.8700000  71.4280000  61.3540000  40.7160000  51.2770000  87.7610000
  41.3230000  51.2870000  87.0210000  39.8570000  51.4400000  87.3690000
  87.5780000  35.4020000  71.3290000  86.9490000  34.7000000  71.1620000
  87.0480000  36.1990000  71.3550000  61.5070000  53.8260000  85.5940000
  62.3790000  53.4680000  85.4290000  61.6640000  54.7390000  85.8340000
  57.3470000  47.4670000  71.6620000  56.7990000  47.3970000  70.8810000
  58.2440000  47.4150000  71.3320000  69.6750000  40.6560000  94.5600000
  70.4430000  40.1170000  94.3680000  70.0050000  41.5550000  94.5520000
  55.8780000  35.5670000  73.1570000  56.3410000  34.7320000  73.2250000
  55.0040000  35.3330000  72.8440000  80.0630000  73.5530000  61.3200000
  80.9530000  73.4560000  60.9820000  79.8310000  72.6800000  61.6380000
  34.6440000  71.0220000  61.1850000  34.9730000  71.9060000  61.0280000
  33.9610000  71.1340000  61.8470000  36.6950000  79.7220000  69.2690000
  36.5440000  78.9540000  68.7190000  37.5880000  79.6110000  69.5970000
  67.6880000  77.9920000  60.3100000  66.8050000  77.6230000  60.2810000
  67.6180000  78.8210000  59.8360000  71.3320000  61.3390000  82.3780000
  71.4380000  62.2900000  82.3620000  70.3840000  61.2030000  82.3720000
  44.8630000  34.4300000  81.0610000  45.4480000  35.0770000  81.4540000
  45.4460000  33.7320000  80.7600000  51.9340000  71.5010000  87.4320000
  51.7480000  70.6130000  87.1260000  51.4730000  71.5680000  88.2690000
  59.5110000  73.9350000  94.1070000  60.4620000  74.0350000  94.1480000
  59.3600000  73.3980000  93.3290000  59.8790000  76.6230000  95.8970000
  59.2540000  75.9350000  96.1280000  59.3680000  77.4320000  95.9300000
  32.1620000  52.4520000  94.9360000  32.5410000  51.5770000  94.8520000
  31.2190000  52.3010000  94.9920000  46.0510000  56.4850000  64.7600000
  45.7540000  56.6460000  65.6550000  46.1810000  57.3580000  64.3890000
  58.3640000  51.9060000  79.2280000  58.7420000  51.8310000  78.3520000
  57.8150000  52.6890000  79.1870000  31.0010000  59.8200000  80.0270000
  31.0000000  58.8640000  80.0020000  31.9200000  60.0630000  79.9120000
  65.9880000  60.6290000  56.0000000  65.4700000  59.8520000  56.2080000
  65.9080000  61.1850000  56.7750000  55.6380000  45.7550000  82.8660000
  56.0390000  46.4200000  82.3070000  54.8400000  46.1680000  83.1950000
  50.9990000  71.9570000  58.4570000  50.2600000  71.3590000  58.5610000
  51.7690000  71.4270000  58.6640000  73.1940000  85.3470000  86.5710000
  73.2620000  85.6600000  85.6690000  73.0370000  86.1370000  87.0880000
  31.4810000  51.2520000  84.7760000  31.9000000  51.5460000  85.5850000
  31.0620000  52.0370000  84.4240000  76.1010000  31.6340000  82.2160000
  76.8070000  31.0000000  82.0950000  76.5490000  32.4670000  82.3690000
  39.7600000  36.3120000  56.0180000  39.6500000  36.0150000  56.9210000
  39.3550000  37.1800000  56.0000000  43.6770000  69.9240000  86.2420000
  43.7940000  70.4880000  87.0070000  43.2110000  70.4720000  85.6100000
  88.4070000  67.3010000  93.2700000  87.4930000  67.4450000  93.5170000
  88.4230000  67.4330000  92.3220000  82.2400000  44.7610000  84.2810000
  82.0760000  44.4670000  83.3850000  81.4580000  44.5000000  84.7660000
  72.9470000  66.2310000  58.6820000  73.2410000  67.1100000  58.4440000
  73.7390000  65.6950000  58.6460000  49.8460000  80.5780000  82.8530000
  49.1030000  81.1780000  82.7980000  49.8660000  80.3050000  83.7710000
  35.6730000  60.4590000  96.5000000  35.4140000  59.5380000  96.4720000
  36.6300000  60.4390000  96.4920000  45.8180000  57.0700000  72.3970000
  45.3980000  56.2290000  72.2180000  45.8990000  57.1010000  73.3500000
  48.0170000  71.9860000  93.1560000  48.6010000  71.2370000  93.2700000
  47.3230000  71.8500000  93.8010000  74.0980000  70.7410000  84.5980000
  74.4920000  71.5210000  84.2080000  73.1600000  70.9290000  84.6170000
  83.6830000  56.7710000  65.8420000  83.7190000  55.8200000  65.7430000
  82.7690000  56.9960000  65.6700000  63.8000000  45.4630000  91.6280000
  63.2880000  45.0320000  92.3120000  63.4990000  45.0590000  90.8130000
  35.8780000  39.2650000  82.6380000  35.0860000  39.7850000  82.5050000
  36.5870000  39.9080000  82.6650000  87.2160000  73.4270000  65.0120000
  87.0430000  72.4880000  64.9450000  88.0140000  73.5610000  64.4990000
  85.3370000  43.8110000  82.3410000  85.8520000  43.6310000  81.5540000
  85.6540000  44.6620000  82.6440000  51.6650000  61.2590000  90.5820000
  51.4040000  62.1780000  90.5350000  51.3790000  60.9720000  91.4500000
  34.0460000  88.8880000  93.6030000  33.2850000  89.0000000  93.0340000
  33.6900000  88.9180000  94.4910000  35.0480000  78.8560000  85.9550000
  34.1120000  78.6930000  86.0700000  35.4060000  78.0130000  85.6750000
  82.5120000  79.7320000  82.3680000  83.2480000  79.1680000  82.1330000
  82.1840000  79.3690000  83.1910000  84.4800000  43.3150000  95.4470000
  83.9670000  44.0450000  95.1000000  84.4400000  43.4240000  96.3980000
  34.7410000  49.8410000  69.0250000  34.0260000  49.2170000  68.9000000
  34.3110000  50.6370000  69.3400000  78.0060000  63.0450000  58.4550000
  78.8150000  62.5530000  58.5920000  78.2450000  63.9550000  58.6350000
  61.4230000  34.0000000  78.1900000  60.7720000  33.3030000  78.1170000
  62.2280000  33.5510000  78.4520000  33.5010000  48.9890000  56.1870000
  33.8930000  48.3070000  56.7310000  33.5660000  49.7850000  56.7160000
  73.0230000  45.2130000  83.4900000  72.3170000  45.1100000  82.8520000
  73.0040000  46.1410000  83.7220000  67.6630000  36.0750000  94.0410000
  68.2010000  36.8660000  94.0310000  66.9190000  36.2980000  94.6020000
  86.2710000  85.9410000  70.5250000  86.8580000  86.6940000  70.5910000
  85.7630000  85.9610000  71.3370000  60.2640000  83.0300000  83.3820000
  60.8610000  82.5570000  82.8020000  60.5430000  83.9440000  83.3190000
  71.1470000  76.4370000  88.2200000  70.8350000  76.0310000  89.0280000
  70.8970000  75.8220000  87.5300000  75.5490000  75.0390000  94.0730000
  76.3270000  75.5940000  94.1260000  75.8890000  74.1450000  94.1160000
  33.4060000  66.4370000  96.2050000  34.3050000  66.2940000  96.5000000
  33.3970000  66.1220000  95.3000000  86.4760000  49.1930000  93.6150000
  85.6260000  49.6320000  93.5910000  87.1140000  49.9060000  93.6370000
  47.1520000  87.3750000  77.9290000  46.5720000  87.4100000  77.1690000
  48.0050000  87.1320000  77.5690000  49.3190000  76.5000000  61.0270000
  49.7480000  76.3600000  61.8710000  50.0170000  76.3900000  60.3810000
  46.0030000  46.6440000  78.1660000  46.9440000  46.5160000  78.0420000
  45.8700000  46.5450000  79.1090000  78.7880000  74.5890000  94.2140000
  79.3590000  73.9170000  94.5860000  79.3880000  75.2160000  93.8090000
  70.4570000  31.0850000  67.1740000  69.8070000  31.1550000  66.4750000
  70.2650000  31.8230000  67.7540000  58.2160000  40.4000000  83.8980000
  58.2280000  40.6400000  82.9710000  58.4850000  41.1970000  84.3560000
  44.1790000  82.2130000  86.3700000  43.9760000  83.1220000  86.5900000
  43.3440000  81.7520000  86.4590000  70.5190000  31.3550000  70.5940000
  69.6680000  31.0050000  70.3330000  71.1330000  31.0000000  69.9490000
  84.6990000  68.9430000  57.2810000  84.3180000  68.9700000  56.4040000
  84.4420000  68.0880000  57.6290000  54.7260000  40.6300000  78.9200000
  54.6250000  40.7120000  77.9720000  53.8940000  40.2620000  79.2190000
  50.1690000  55.8810000  56.0970000  49.8520000  55.3520000  56.8290000
  51.0880000  55.6280000  56.0000000  65.6610000  82.4240000  66.7480000
  65.7920000  83.2800000  66.3400000  66.2540000  81.8400000  66.2760000
  31.1670000  81.5000000  58.4670000  31.0040000  80.6360000  58.8450000
  31.0000000  82.1110000  59.1860000  48.2000000  71.3920000  89.9240000
  48.1390000  72.1560000  90.4970000  48.8600000  71.6330000  89.2730000
  73.4640000  85.5640000  60.7260000  73.0030000  86.3210000  60.3650000
  73.1980000  85.5370000  61.6460000  73.5170000  56.3900000  62.3690000
  74.2690000  56.9060000  62.6590000  73.8490000  55.8750000  61.6330000
  43.6480000  86.2970000  80.8030000  44.5670000  86.5600000  80.8600000
  43.4510000  85.9290000  81.6650000  45.5760000  58.2330000  76.9150000
  44.9090000  58.5250000  76.2940000  45.0950000  57.7050000  77.5530000
  75.3460000  80.5580000  72.0770000  75.6170000  79.6530000  71.9220000
  76.1030000  81.0830000  71.8180000  66.6670000  44.1100000  61.4680000
  66.9350000  44.5940000  60.6880000  65.7140000  44.0440000  61.3940000
  43.9780000  40.5070000  80.2010000  43.5910000  41.1650000  79.6240000
  44.9170000  40.6910000  80.1800000  40.1290000  48.8900000  80.1480000
  40.2210000  48.2760000  79.4190000  41.0290000  49.1010000  80.3980000
  31.0000000  44.2440000  58.7880000  31.0250000  45.1990000  58.8450000
  31.9090000  43.9890000  58.6270000  81.3170000  52.8820000  61.0670000
  80.8460000  53.6330000  60.7060000  81.0990000  52.1580000  60.4790000
  52.8780000  86.1710000  64.1390000  53.1080000  86.9120000  64.7000000
  52.5820000  86.5730000  63.3210000  40.6370000  80.2880000  56.0270000
  40.6910000  81.2430000  56.0000000  39.6980000  80.1010000  56.0140000
  44.0790000  80.7370000  82.5100000  44.8020000  80.8920000  81.9030000
  43.2930000  80.9590000  82.0100000  33.4830000  59.5350000  88.7040000
  33.0730000  60.3890000  88.8370000  33.1760000  59.0040000  89.4400000
  72.5860000  51.3740000  73.8310000  71.6370000  51.4960000  73.8010000
  72.7810000  50.8230000  73.0730000  40.2620000  69.3950000  93.5910000
  39.7250000  70.1170000  93.9180000  41.1560000  69.6270000  93.8420000
  46.2230000  64.5630000  66.2690000  47.1230000  64.2380000  66.2520000
  45.6820000  63.7730000  66.2790000  39.5810000  40.0070000  69.4380000
  39.1840000  39.2470000  69.8640000  40.3330000  40.2250000  69.9880000
  81.3490000  49.6560000  72.8070000  80.8570000  50.1550000  72.1560000
  82.1000000  49.3080000  72.3260000  51.2380000  67.5380000  85.8070000
  50.8440000  67.3320000  84.9600000  51.2450000  68.4950000  85.8420000
  72.9410000  69.7140000  71.6610000  73.0110000  70.0020000  70.7510000
  72.0000000  69.7020000  71.8380000  60.7170000  44.6880000  66.2030000
  60.9100000  45.6250000  66.1670000  61.5740000  44.2640000  66.1510000
  50.1640000  38.1650000  86.3400000  50.5520000  38.3430000  85.4830000
  50.0590000  37.2140000  86.3630000  50.0030000  70.0070000  91.1290000
  50.7410000  70.1550000  90.5390000  50.2790000  69.2730000  91.6790000
  88.3460000  43.6130000  82.9600000  89.0000000  44.3040000  82.8560000
  88.8580000  42.8150000  83.0920000  80.1510000  87.1460000  88.4100000
  80.4990000  87.5770000  89.1890000  79.2310000  87.4120000  88.3790000
  61.5040000  66.7680000  93.7610000  62.1380000  66.2650000  93.2500000
  60.7410000  66.8440000  93.1880000  85.3590000  82.8450000  92.8640000
  85.7220000  83.5580000  93.3880000  85.6530000  83.0290000  91.9720000
  64.0550000  31.9040000  96.5000000  63.8650000  31.0000000  96.2500000
  63.7240000  32.4290000  95.7710000  81.7680000  83.8000000  92.3820000
  82.6950000  83.8310000  92.1460000  81.6550000  84.5180000  93.0050000
  76.0920000  67.9870000  80.0450000  75.1460000  67.9590000  80.1820000
  76.2900000  68.9150000  79.9210000  52.7310000  45.2140000  69.8530000
  52.5560000  45.4240000  70.7700000  53.6790000  45.0920000  69.8100000
  46.8600000  63.9210000  59.1070000  47.8140000  63.8490000  59.1190000
  46.6900000  64.8630000  59.1320000  54.4930000  58.3560000  66.5190000
  53.5430000  58.3380000  66.6340000  54.7250000  57.4540000  66.2970000
  41.3230000  53.1850000  71.1130000  40.8390000  52.4140000  70.8170000
  41.4580000  53.0370000  72.0500000  36.7000000  69.3490000  82.9820000
  36.0770000  69.4470000  82.2620000  37.3360000  70.0510000  82.8470000
  71.3230000  48.0420000  66.5780000  71.0410000  48.9520000  66.4880000
  70.9350000  47.7510000  67.4040000  44.1230000  49.2230000  78.8800000
  44.2600000  48.4240000  78.3710000  44.1760000  48.9380000  79.7930000
  75.7280000  68.1140000  76.7840000  76.6040000  68.5000000  76.7650000
  75.4010000  68.3080000  77.6630000  55.4010000  84.3730000  56.9180000
  55.1320000  84.3460000  56.0000000  55.9660000  83.6070000  57.0250000
  48.2930000  52.5380000  87.4770000  48.1610000  51.6160000  87.2560000
  48.6440000  52.5250000  88.3670000  47.0580000  83.1860000  69.8770000
  46.2420000  82.8150000  69.5430000  46.9050000  84.1310000  69.8870000
  47.3090000  41.2270000  77.3560000  46.5360000  41.7810000  77.2480000
  47.2380000  40.8880000  78.2490000  64.4100000  43.6010000  74.5210000
  64.3470000  44.0020000  75.3880000  65.3260000  43.7180000  74.2690000
  71.3970000  82.8140000  62.1290000  70.5710000  82.7250000  62.6030000
  71.8100000  81.9530000  62.2010000  43.1600000  31.0450000  93.0140000
  42.2920000  31.0080000  93.4160000  43.7690000  31.0000000  93.7520000
  45.2360000  61.0680000  77.6590000  44.4630000  60.5120000  77.7580000
  45.9640000  60.5220000  77.9560000  69.4630000  50.8770000  65.1460000
  69.9930000  50.2680000  64.6320000  70.0560000  51.1970000  65.8260000
  51.0110000  60.6590000  81.8490000  51.5140000  59.9040000  81.5440000
  51.6510000  61.3700000  81.8960000  78.0590000  87.2180000  66.4840000
  77.3720000  86.5690000  66.6330000  77.8610000  87.5830000  65.6210000
  61.1220000  83.3310000  58.7530000  61.4230000  83.9300000  58.0700000
  61.8610000  83.2640000  59.3580000  51.7140000  32.8670000  76.2010000
  52.1230000  33.6710000  76.5210000  52.2360000  32.1630000  76.5860000
  41.1420000  53.5070000  78.2070000  41.2820000  53.8500000  79.0890000
  41.6250000  54.1070000  77.6370000  48.7120000  59.6210000  64.6150000
  48.7500000  59.0080000  65.3490000  49.6210000  59.7020000  64.3240000
  85.8770000  47.4390000  76.5460000  85.2370000  47.2890000  77.2420000
  86.7250000  47.4140000  76.9910000  56.1180000  69.0540000  79.3010000
  56.6320000  68.2610000  79.4490000  55.2290000  68.8160000  79.5660000
  46.0250000  40.8590000  58.6760000  45.1420000  41.1600000  58.4660000
  46.4030000  41.5670000  59.1980000  38.9010000  35.7770000  72.5600000
  38.7940000  35.7770000  71.6090000  39.8120000  35.5190000  72.6990000
  49.0820000  64.3740000  62.0980000  48.4000000  64.9760000  62.3970000
  49.1170000  64.5040000  61.1500000  51.7970000  54.9630000  63.5530000
  52.2590000  55.7320000  63.2210000  52.4910000  54.3850000  63.8720000
  73.3570000  62.2140000  62.0320000  72.4190000  62.0230000  62.0240000
  73.4070000  63.1690000  62.0800000  34.2250000  43.3560000  62.0660000
  35.1040000  42.9990000  62.1900000  33.6650000  42.5850000  61.9700000
  86.6720000  57.5880000  66.5650000  87.5520000  57.6820000  66.9290000
  86.6890000  56.7450000  66.1110000  77.4200000  37.8050000  70.7980000
  77.0960000  37.1030000  71.3620000  77.8950000  38.3880000  71.3900000
  59.6190000  46.9300000  96.0970000  59.1280000  47.6460000  96.5000000
  59.2560000  46.1370000  96.4920000  56.6770000  51.5940000  73.9160000
  56.5870000  52.3420000  74.5060000  57.5850000  51.6350000  73.6140000
  42.2620000  63.4160000  72.9520000  42.4840000  64.2850000  73.2850000
  41.3730000  63.2570000  73.2710000  73.7870000  88.9750000  80.7730000
  73.1180000  88.4340000  80.3540000  73.5320000  89.0000000  81.6960000
  81.8610000  31.6520000  60.0480000  81.3010000  31.0000000  59.6270000
  82.5590000  31.8150000  59.4140000  71.8580000  83.5590000  85.0620000
  72.1380000  82.6580000  84.9030000  70.9270000  83.5640000  84.8390000
  40.6530000  73.1640000  82.9410000  41.0800000  72.7360000  83.6830000
  40.0220000  73.7630000  83.3410000  66.4380000  86.3580000  56.0000000
  66.9230000  86.8080000  56.6920000  65.8060000  85.8120000  56.4670000
  56.1020000  67.9640000  76.0710000  55.3040000  68.2080000  75.6030000
  56.0930000  68.5060000  76.8600000  88.9260000  80.5970000  96.5000000
  88.9090000  80.1630000  95.6470000  89.0000000  81.5290000  96.2940000
  74.9520000  33.5210000  58.9530000  74.9110000  34.1650000  59.6600000
  74.1180000  33.0540000  59.0060000  75.4270000  58.8060000  72.5650000
  75.5810000  57.9740000  73.0130000  74.4760000  58.9190000  72.5900000
  31.0270000  45.5880000  84.9830000  31.0000000  45.7490000  84.0400000
  31.0600000  44.6350000  85.0630000  49.7150000  57.8220000  59.2320000
  49.0570000  58.1610000  58.6250000  49.7570000  58.4770000  59.9290000
  84.4280000  40.7100000  66.9200000  83.7260000  40.7690000  66.2720000
  84.7850000  41.5970000  66.9690000  72.1380000  39.7130000  73.3360000
  73.0620000  39.4650000  73.3430000  71.8320000  39.5240000  74.2240000
  46.0020000  61.1950000  84.2920000  45.5710000  60.4710000  83.8400000
  46.8010000  60.8100000  84.6540000  62.6420000  45.4220000  96.4840000
  63.0580000  46.2840000  96.4920000  61.7030000  45.6090000  96.5000000
  46.9850000  84.1560000  85.6650000  47.2030000  83.2260000  85.7170000
  46.0280000  84.1770000  85.6250000  36.7220000  75.5040000  92.2080000
  36.2700000  74.7100000  92.4930000  36.0900000  76.2070000  92.3600000
  69.8650000  47.4510000  90.6000000  70.1710000  46.6820000  90.1190000
  70.2800000  48.1920000  90.1570000  66.5360000  75.1950000  90.8870000
  66.7250000  74.7530000  90.0600000  65.5970000  75.3780000  90.8520000
  86.0890000  88.4840000  68.1900000  86.2260000  87.9370000  67.4170000
  85.3090000  89.0000000  67.9840000  83.4580000  55.8050000  62.2910000
  83.0780000  56.6820000  62.3280000  82.7030000  55.2160000  62.2840000
  68.6860000  44.5280000  87.5970000  68.9140000  43.7540000  88.1110000
  68.4270000  44.1810000  86.7430000  32.0880000  64.2080000  93.1980000
  32.5240000  64.0200000  92.3670000  31.1710000  63.9790000  93.0450000
  84.4000000  78.3660000  56.0900000  85.2600000  77.9550000  56.0000000
  83.7800000  77.6380000  56.0470000  61.9530000  48.5260000  96.4770000
  62.6850000  49.1410000  96.4420000  61.1740000  49.0820000  96.5000000
  76.0940000  61.0030000  60.3060000  75.1590000  60.8110000  60.2360000
  76.2650000  61.6250000  59.5980000  59.9470000  56.6890000  58.8480000
  59.4820000  57.3230000  58.3030000  59.4720000  55.8670000  58.7190000
  78.3530000  59.0620000  70.3400000  77.4550000  58.7340000  70.2920000
  78.8220000  58.4020000  70.8520000  69.1100000  59.7210000  76.8220000
  68.8860000  59.2490000  77.6240000  68.3840000  60.3320000  76.6920000
  78.3300000  34.1320000  88.4600000  78.2180000  33.5980000  89.2460000
  78.1430000  33.5340000  87.7360000  72.7780000  34.0400000  93.8220000
  72.8180000  34.9800000  93.6430000  73.6580000  33.8160000  94.1260000
  46.2780000  54.1840000  65.7120000  46.9660000  53.5560000  65.9300000
  45.5180000  53.6420000  65.4970000  69.0930000  72.1310000  58.2930000
  68.1390000  72.0530000  58.3070000  69.3560000  71.7170000  57.4710000
  80.3120000  63.9790000  76.6540000  79.9510000  63.0940000  76.7070000
  79.5450000  64.5510000  76.6630000  38.8110000  50.0860000  66.8150000
  39.1750000  49.4410000  67.4210000  38.8230000  50.9090000  67.3050000
  40.1770000  31.8590000  61.3940000  40.0460000  31.9780000  62.3350000
  39.7990000  31.0000000  61.2060000  32.9820000  88.2800000  61.6140000
  32.8220000  89.0000000  61.0040000  32.7240000  87.4950000  61.1310000
  31.5920000  57.8610000  61.4520000  32.4440000  57.9740000  61.0310000
  31.2910000  58.7520000  61.6290000  49.2250000  41.1380000  88.9280000
  49.0620000  40.3630000  89.4670000  48.5890000  41.0730000  88.2160000
  70.0300000  84.4880000  60.7890000  70.9340000  84.7080000  60.5640000
  69.5250000  85.2610000  60.5350000  70.7470000  43.8640000  60.8880000
  69.9060000  43.5180000  60.5910000  71.1560000  43.1360000  61.3560000
  72.9730000  31.0270000  67.3100000  73.4820000  31.0000000  68.1190000
  72.7990000  31.9580000  67.1670000  49.7810000  66.5150000  76.3270000
  50.5230000  67.1170000  76.2740000  50.1810000  65.6450000  76.3580000
  68.9710000  32.3150000  94.0130000  68.4060000  33.0870000  93.9750000
  69.8600000  32.6690000  94.0180000  40.0690000  88.8340000  83.6650000
  39.9750000  89.0000000  82.7270000  40.9940000  89.0000000  83.8470000
  72.4150000  54.8390000  92.1390000  71.9800000  54.8770000  91.2880000
  71.9020000  54.2070000  92.6430000  77.2270000  78.7480000  77.7480000
  78.0360000  78.8650000  77.2490000  77.3460000  79.2900000  78.5280000
  31.9950000  87.2350000  96.5000000  32.2480000  88.1570000  96.5000000
  32.8250000  86.7580000  96.5000000  34.4510000  38.4930000  71.3070000
  33.5060000  38.4660000  71.1600000  34.5790000  38.0220000  72.1300000
  61.5960000  73.7780000  83.4720000  62.3680000  74.3190000  83.3040000
  61.9200000  72.8780000  83.4290000  50.9900000  78.9610000  91.0150000
  50.4510000  78.5580000  91.6960000  51.5520000  79.5770000  91.4870000
  79.2510000  39.9180000  85.1560000  79.0200000  39.1070000  85.6080000
  80.1680000  39.8010000  84.9080000  74.3310000  65.3660000  93.2180000
  74.0150000  65.4320000  94.1190000  74.0490000  64.4980000  92.9280000
  38.9470000  52.8720000  63.2490000  37.9910000  52.8650000  63.2830000
  39.1620000  53.6140000  62.6830000  37.9630000  77.4220000  61.7230000
  38.7520000  76.9600000  61.4400000  37.5530000  77.7180000  60.9090000
  75.0350000  59.6220000  70.0650000  75.1680000  60.4900000  69.6850000
  74.0900000  59.5630000  70.2050000  52.8970000  83.0180000  65.2880000
  52.9500000  83.5910000  64.5240000  52.0410000  83.2080000  65.6720000
  34.0110000  48.6960000  77.6190000  34.3850000  48.2550000  78.3820000
  33.5890000  47.9950000  77.1200000  61.3250000  58.8410000  56.8820000
  62.1410000  59.3390000  56.8300000  60.9560000  58.8920000  56.0000000
  62.4350000  52.5710000  65.2210000  63.3670000  52.3550000  65.2060000
  62.1910000  52.5180000  66.1450000  40.7770000  33.3800000  90.5030000
  40.4260000  33.1690000  89.6380000  41.6300000  32.9450000  90.5280000
  83.4990000  77.1430000  90.0460000  83.6580000  77.8760000  90.6390000
  82.5510000  77.1430000  89.9120000  31.5910000  39.7890000  94.5500000
  31.0000000  40.3530000  95.0480000  31.0110000  39.1830000  94.0870000
  40.6880000  73.0680000  86.8560000  41.2110000  72.4240000  86.3800000
  39.7840000  72.8790000  86.6020000  64.3230000  47.5840000  72.9440000
  64.4120000  46.6320000  72.9120000  63.8780000  47.7560000  73.7740000
  65.6240000  36.6240000  66.7300000  65.6460000  37.1040000  67.5580000
  65.0640000  35.8680000  66.9060000  61.4070000  47.7610000  76.1470000
  60.7240000  48.4230000  76.2550000  61.9920000  48.1260000  75.4830000
  35.0970000  56.4430000  60.8880000  34.9470000  57.3870000  60.8350000
  34.2200000  56.0630000  60.9370000  38.2250000  81.0330000  60.7800000
  39.1760000  80.9520000  60.7150000  37.8890000  80.2090000  60.4270000
  37.9400000  69.9440000  56.0340000  38.2880000  70.8120000  56.2380000
  38.0700000  69.4390000  56.8370000  77.4710000  57.6240000  86.4020000
  78.4120000  57.4620000  86.3420000  77.3930000  58.5780000  86.4280000
  59.3300000  80.3930000  58.2260000  59.5150000  81.2970000  58.4790000
  58.3780000  80.3620000  58.1250000  67.2620000  54.4370000  79.3370000
  68.1860000  54.6750000  79.2660000  66.8060000  55.2730000  79.4400000
  51.3740000  89.0000000  75.5240000  50.8190000  88.9680000  74.7440000
  50.7580000  88.9940000  76.2570000  73.4710000  48.1670000  90.5780000
  74.2310000  48.4540000  90.0730000  73.8370000  47.6190000  91.2730000
  55.6340000  74.2840000  85.1300000  56.3520000  74.5210000  84.5430000
  55.1860000  73.5660000  84.6820000  41.3120000  59.5020000  69.5880000
  40.4210000  59.6550000  69.2720000  41.1960000  59.1340000  70.4640000
  74.3520000  42.7060000  91.1810000  73.9520000  42.4870000  92.0230000
  73.6100000  42.8820000  90.6020000  66.7430000  67.4850000  75.8980000
  66.3300000  67.8570000  75.1190000  66.8380000  68.2270000  76.4960000
  62.7710000  84.0050000  94.1650000  62.7820000  83.8030000  93.2300000
  63.6510000  83.7830000  94.4690000  79.3020000  40.6030000  62.0120000
  80.0060000  41.0810000  62.4500000  79.1900000  39.8080000  62.5350000
  45.6790000  84.5980000  96.4720000  46.4780000  85.1240000  96.5000000
  44.9690000  85.2400000  96.4720000  66.0470000  70.8560000  81.8690000
  65.3590000  71.0820000  81.2440000  66.0930000  69.9000000  81.8390000
  68.0480000  80.6760000  72.7890000  68.6750000  79.9750000  72.6100000
  67.9860000  80.7050000  73.7440000  86.2350000  76.6410000  78.2630000
  86.8290000  77.2720000  78.6670000  85.8940000  77.0930000  77.4900000
  51.2090000  51.9330000  87.8280000  50.9630000  52.4750000  87.0790000
  50.6630000  51.1510000  87.7480000  52.2430000  77.8450000  56.5570000
  52.4340000  78.7520000  56.3190000  52.8230000  77.3240000  56.0000000
  80.2160000  35.6840000  61.2120000  80.7710000  36.0940000  61.8750000
  79.6420000  36.3890000  60.9110000  46.8340000  35.5920000  88.4040000
  47.1670000  36.3510000  87.9270000  47.1700000  35.7010000  89.2940000
  38.3450000  42.0130000  71.2420000  38.4720000  41.4230000  71.9840000
  37.6190000  41.6290000  70.7510000  85.5710000  43.9230000  93.1860000
  85.4020000  43.0510000  92.8300000  85.1230000  44.5190000  92.5850000
  88.1190000  59.1100000  85.4230000  88.0090000  58.1590000  85.4300000
  89.0000000  59.2520000  85.7690000  50.8850000  75.7440000  56.0010000
  50.4720000  76.0960000  56.7890000  51.5190000  75.1050000  56.3270000
  42.7150000  75.5380000  96.4990000  42.9500000  74.6100000  96.5000000
  43.5500000  75.9970000  96.4070000  36.4180000  31.6310000  84.9070000
  35.9270000  31.0000000  84.3820000  36.2690000  32.4720000  84.4740000
  39.6520000  79.2620000  71.6410000  40.2310000  79.5300000  72.3540000
  38.7690000  79.4020000  71.9840000  49.8270000  42.6020000  83.8700000
  49.5030000  41.7300000  84.0970000  49.0500000  43.1610000  83.8940000
  50.6920000  75.3600000  96.4690000  51.5390000  74.9140000  96.4780000
  50.0480000  74.6520000  96.5000000  81.4520000  80.6560000  62.7930000
  81.9230000  80.5580000  61.9660000  80.6500000  80.1460000  62.6740000
  73.3970000  54.9580000  79.4750000  73.3450000  55.8290000  79.8670000
  73.6350000  54.3810000  80.2020000  48.2070000  82.3240000  56.0710000
  47.7860000  83.0190000  56.5760000  47.5400000  81.6410000  56.0000000
  65.2460000  63.5460000  58.2850000  65.1050000  64.4470000  58.5740000
  66.1340000  63.3370000  58.5760000  45.4580000  49.5130000  92.2710000
  46.1540000  48.8570000  92.2960000  45.9140000  50.3430000  92.1290000
  44.2340000  32.6210000  69.2230000  43.4820000  33.1990000  69.3500000
  44.9750000  33.2140000  69.0970000  49.2400000  62.1430000  68.8860000
  48.8130000  62.9540000  68.6090000  49.3600000  62.2450000  69.8300000
  85.9060000  64.1340000  61.5130000  86.5720000  63.4550000  61.6160000
  86.4030000  64.9480000  61.4320000  68.2210000  66.5720000  56.0060000
  68.8370000  67.3050000  56.0080000  67.3570000  66.9850000  56.0010000
  41.2240000  60.8420000  88.1280000  41.3850000  60.3340000  88.9230000
  41.7680000  61.6230000  88.2290000  86.8880000  75.9430000  67.2330000
  87.3270000  75.8950000  66.3840000  87.2600000  76.7190000  67.6520000
  60.4090000  70.4860000  71.3620000  61.2430000  70.0160000  71.3620000
  59.7450000  69.7960000  71.3610000  54.1110000  79.8410000  92.1870000
  54.9720000  79.4780000  91.9820000  53.7730000  79.2780000  92.8850000
  38.1550000  34.2420000  78.3700000  37.9120000  35.1670000  78.3440000
  38.6700000  34.1060000  77.5750000  69.8470000  83.3900000  96.4900000
  69.2510000  84.1380000  96.5000000  70.7220000  83.7800000  96.4900000
  67.6190000  67.8110000  91.7760000  67.4180000  67.3340000  90.9720000
  68.1630000  68.5450000  91.4900000  62.1750000  34.3890000  93.5700000
  62.7940000  33.7080000  93.8350000  62.7110000  35.1770000  93.4780000
  66.9710000  35.2480000  63.5880000  66.0550000  35.4600000  63.7660000
  67.0950000  35.4720000  62.6650000  52.7520000  84.6970000  83.8750000
  52.5190000  84.3030000  83.0350000  52.0180000  84.4850000  84.4520000
  43.2670000  31.1090000  72.1260000  43.6210000  31.0000000  71.2430000
  44.0230000  31.0010000  72.7030000  33.8570000  85.3310000  60.5970000
  33.5990000  84.4630000  60.2880000  33.7950000  85.2750000  61.5500000
  49.1150000  75.3200000  80.5530000  49.9890000  74.9370000  80.6260000
  48.5310000  74.5670000  80.4500000  49.1570000  77.8530000  89.6730000
  48.4000000  78.1290000  89.1560000  49.0670000  76.9020000  89.7400000
  81.8120000  63.9030000  90.5450000  82.1890000  63.6110000  89.7160000
  82.3490000  63.4790000  91.2150000  80.3610000  86.9520000  80.9100000
  81.2160000  87.1890000  81.2690000  80.5260000  86.1580000  80.4010000
  73.6780000  43.0530000  62.6740000  73.9910000  43.0170000  61.7710000
  74.3340000  42.5690000  63.1750000  88.9110000  51.2850000  60.2830000
  89.0000000  50.4190000  59.8850000  89.0000000  51.1280000  61.2230000
  37.4930000  88.0100000  78.5330000  36.7830000  87.3800000  78.6550000
  37.0490000  88.8380000  78.3480000  58.4120000  82.2430000  96.5000000
  58.2720000  81.8200000  95.6530000  59.3280000  82.5190000  96.4830000
  31.5850000  31.1210000  89.6940000  31.0000000  31.2950000  90.4310000
  31.0000000  31.0000000  88.9460000  31.2760000  49.6990000  88.7430000
  32.1900000  49.6490000  89.0220000  31.0460000  50.6230000  88.8380000
  56.3900000  47.3430000  65.9060000  56.6310000  46.8350000  66.6800000
  55.4720000  47.5760000  66.0470000  50.0950000  70.8930000  77.7030000
  50.1940000  70.0720000  78.1840000  50.1750000  70.6440000  76.7820000
  50.1350000  59.2430000  89.6070000  51.0490000  58.9890000  89.7310000
  49.7760000  59.2890000  90.4940000  35.1270000  79.4760000  93.4320000
  35.6280000  78.7480000  93.0640000  35.6440000  79.7670000  94.1830000
  31.0060000  49.3730000  94.0420000  31.0000000  48.4700000  93.7270000
  31.0000000  49.9060000  93.2470000  35.8010000  38.3070000  77.3450000
  36.6720000  38.4520000  76.9740000  35.3970000  39.1750000  77.3540000
  83.6520000  57.4360000  68.2520000  84.0420000  58.2990000  68.3920000
  82.7210000  57.6130000  68.1100000  80.3450000  79.0020000  69.9350000
  79.9010000  78.1610000  70.0430000  79.6480000  79.6540000  70.0180000
  70.8400000  75.1680000  81.7620000  70.3250000  74.7080000  82.4240000
  71.6360000  74.6440000  81.6700000  41.5420000  37.6920000  71.5080000
  41.8380000  38.6020000  71.5050000  40.5860000  37.7510000  71.5050000
  84.2220000  69.1010000  85.9850000  83.4420000  69.6530000  86.0330000
  84.5220000  69.1870000  85.0790000  39.2680000  85.0150000  77.9390000
  39.0140000  84.7350000  78.8180000  38.6070000  85.6640000  77.6940000
  41.2060000  36.4550000  77.8190000  40.3210000  36.0920000  77.7850000
  41.0760000  37.4040000  77.8210000  49.8480000  50.1510000  70.4210000
  50.3720000  49.8090000  71.1450000  49.8090000  49.4300000  69.7910000
  53.9120000  53.5960000  87.1440000  53.5170000  52.7390000  87.3050000
  53.2720000  54.0560000  86.6000000  69.7140000  84.1140000  77.7310000
  70.2680000  84.8800000  77.8860000  70.1430000  83.6490000  77.0130000
  31.5330000  65.1250000  89.6780000  31.0050000  65.1760000  88.8820000
  31.0000000  64.6150000  90.2880000  88.4180000  37.3270000  96.3640000
  89.0000000  38.0860000  96.3600000  89.0000000  36.5780000  96.4970000
  69.0430000  58.3640000  69.2370000  68.6220000  58.7310000  70.0150000
  68.6870000  57.4770000  69.1680000  31.0330000  88.0920000  63.7160000
  31.0000000  87.5310000  62.9410000  31.0000000  88.9840000  63.3690000
  84.2790000  75.1390000  80.5620000  84.9070000  75.7570000  80.1880000
  84.7780000  74.6630000  81.2260000  79.0740000  69.2610000  84.9720000
  78.7690000  68.3920000  84.7140000  79.8980000  69.3770000  84.4970000
  88.6530000  81.8020000  83.8870000  88.4780000  80.9490000  84.2820000
  88.3910000  82.4350000  84.5560000  33.0360000  46.2240000  73.7350000
  33.0020000  46.8120000  74.4900000  33.6900000  46.6170000  73.1550000
  79.6800000  31.0000000  63.0000000  79.7700000  31.0060000  62.0470000
  80.5800000  31.0000000  63.3260000  37.5760000  38.0470000  88.7920000
  37.7500000  37.5820000  87.9740000  37.0040000  38.7720000  88.5380000
  35.3490000  76.5520000  69.0840000  35.9260000  75.8100000  68.9030000
  34.9650000  76.7700000  68.2340000  86.7490000  70.9210000  69.2720000
  87.4020000  70.2390000  69.4260000  86.5890000  71.3000000  70.1370000
  66.6680000  39.8770000  83.9200000  66.9880000  40.7580000  83.7260000
  65.7160000  39.9700000  83.9580000  84.5650000  34.5610000  86.1130000
  83.9210000  35.2060000  86.4050000  84.8640000  34.8880000  85.2640000
  71.8570000  86.5810000  73.0890000  72.4200000  86.1370000  72.4550000
  71.2050000  87.0360000  72.5550000  56.7040000  62.1730000  56.0650000
  55.9010000  61.6540000  56.0220000  57.4100000  61.5290000  56.0000000
  79.3280000  45.0520000  72.5670000  79.5680000  45.3460000  73.4450000
  79.3990000  45.8380000  72.0230000  78.9050000  40.3390000  73.9490000
  78.4470000  40.2930000  74.7880000  78.3150000  39.9090000  73.3300000
  56.1370000  39.2360000  75.8180000  56.3420000  39.6160000  74.9640000
  56.9730000  38.8930000  76.1350000  40.5530000  45.9690000  71.0030000
  39.8640000  45.3080000  70.9400000  41.3500000  45.4690000  71.1820000
  79.4080000  86.6990000  75.8330000  79.2430000  85.7560000  75.8050000
  79.6780000  86.9220000  74.9420000  67.9920000  52.9750000  81.5530000
  68.8960000  53.2670000  81.6660000  68.0550000  52.0230000  81.4740000
  74.5180000  88.6200000  61.7410000  74.0180000  88.1270000  62.3920000
  73.8530000  89.0000000  61.1660000  88.8620000  49.9730000  63.5110000
  88.0200000  49.7900000  63.0950000  88.9990000  49.2360000  64.1070000
  50.7510000  67.6610000  69.2960000  50.9780000  67.0090000  69.9580000
  51.3000000  68.4170000  69.5050000  31.0740000  33.0380000  80.0200000
  31.0000000  32.2620000  80.5740000  31.9830000  33.0330000  79.7190000
  55.8340000  64.4990000  74.5330000  56.4480000  63.9680000  75.0400000
  56.2960000  65.3240000  74.3850000  55.1380000  47.3200000  78.9020000
  55.4040000  47.5910000  79.7810000  55.9610000  47.1390000  78.4480000
  88.9760000  34.5890000  69.1960000  89.0000000  34.3460000  68.2700000
  88.9800000  33.7540000  69.6640000  70.7890000  66.0870000  88.6590000
  70.6560000  65.1410000  88.6010000  70.4830000  66.4240000  87.8170000
  59.5770000  53.1210000  88.0550000  59.7520000  53.7750000  87.3780000
  58.7000000  52.7950000  87.8510000  55.2980000  31.8920000  81.6650000
  55.3270000  31.0000000  82.0110000  54.4990000  32.2680000  82.0370000
  50.7930000  81.0830000  67.5100000  51.6540000  81.4980000  67.4550000
  50.9810000  80.1440000  67.5300000  43.6570000  71.4440000  70.4680000
  43.9520000  72.3500000  70.3800000  42.7150000  71.5130000  70.6290000
  80.5290000  38.0080000  74.8980000  81.3870000  38.2910000  74.5840000
  80.4380000  38.4230000  75.7560000  59.2210000  68.1480000  59.1870000
  58.3640000  67.9460000  59.5600000  59.2990000  67.5630000  58.4330000
  47.8510000  37.9660000  95.6060000  47.3820000  38.6060000  95.0710000
  47.7780000  38.3000000  96.5000000  57.7330000  32.9320000  71.7540000
  58.3300000  33.5030000  72.2380000  58.1980000  32.0970000  71.6900000
  85.7510000  73.6660000  58.9530000  86.1060000  73.0140000  59.5570000
  86.3250000  74.4260000  59.0560000  39.5300000  74.1630000  74.6400000
  38.9080000  74.6080000  74.0640000  40.3910000  74.4150000  74.3040000
  31.5860000  58.1250000  73.9590000  31.0000000  58.8810000  73.9230000
  31.0000000  57.3710000  74.0370000  76.5440000  71.4410000  73.7710000
  76.2910000  71.0690000  72.9260000  76.8060000  70.6850000  74.2970000
  33.1180000  86.4120000  74.3470000  32.3110000  85.9540000  74.1120000
  33.2310000  86.2340000  75.2810000  66.9790000  52.4300000  83.9440000
  67.9230000  52.2690000  83.9580000  66.8960000  53.3810000  84.0250000
  74.9690000  61.6790000  77.7660000  74.5330000  60.8710000  77.4930000
  74.2630000  62.2290000  78.1060000  50.0890000  77.6290000  82.0490000
  49.1750000  77.3460000  82.0540000  50.2360000  77.9800000  82.9280000
  55.0480000  31.1840000  96.4360000  55.7170000  31.8650000  96.5000000
  54.2170000  31.6590000  96.4730000  74.6150000  59.9600000  74.9750000
  75.4400000  60.4210000  74.8260000  74.8740000  59.0580000  75.1650000
  76.8700000  84.5190000  71.9340000  76.8590000  84.2790000  71.0070000
  77.4150000  85.3050000  71.9720000  82.9280000  75.7530000  82.5740000
  82.9830000  76.6850000  82.7840000  82.1900000  75.4330000  83.0940000
  34.0390000  42.1060000  76.5180000  34.3880000  41.8890000  75.6540000
  34.1100000  41.2920000  77.0170000  47.7730000  64.3230000  70.9190000
  47.3120000  64.9900000  71.4270000  48.6520000  64.6830000  70.7930000
  43.1660000  36.5220000  62.5190000  43.6790000  35.8520000  62.9690000
  42.8970000  36.1080000  61.6980000  31.5610000  49.3550000  68.5080000
  31.0000000  48.7080000  68.0810000  31.0000000  49.7610000  69.1690000
  43.7620000  78.3000000  73.7960000  42.8590000  78.5790000  73.6460000
  44.0980000  78.9150000  74.4490000  61.6660000  54.8240000  72.3310000
  61.4500000  54.8900000  71.4010000  61.5390000  53.8990000  72.5420000
  58.2990000  55.7430000  82.3000000  58.6360000  56.4690000  81.7760000
  57.7810000  55.2230000  81.6850000  36.6420000  31.6740000  58.5980000
  36.9230000  31.0000000  59.2160000  35.7710000  31.3950000  58.3170000
  52.1280000  81.7730000  71.6200000  51.2800000  81.4060000  71.8670000
  52.2560000  82.5070000  72.2220000  55.6950000  86.6210000  68.4400000
  54.8280000  86.5040000  68.0510000  56.2740000  86.0810000  67.9020000
  34.3710000  38.3450000  84.6160000  33.5460000  38.3210000  85.1000000
  34.3340000  37.5810000  84.0400000  31.0000000  48.7120000  73.2160000
  31.9240000  48.9600000  73.2220000  31.0050000  47.7610000  73.3230000
  40.0800000  56.1510000  66.1160000  40.3840000  56.7820000  65.4630000
  40.8000000  55.5250000  66.1990000  88.0850000  43.2500000  93.8740000
  87.5870000  42.4330000  93.8770000  89.0000000  42.9740000  93.9370000
  48.1600000  72.4360000  72.5480000  49.0500000  72.6650000  72.2790000
  47.8800000  73.1700000  73.0960000  37.7740000  31.1790000  79.9110000
  37.7140000  32.1320000  79.8440000  37.7070000  31.0000000  80.8500000
  75.7320000  49.4250000  73.2980000  75.3830000  49.0440000  74.1030000
  74.9580000  49.6240000  72.7710000  65.6870000  45.1410000  89.6070000
  65.8550000  45.6640000  88.8220000  66.2390000  45.5380000  90.2810000
  73.0480000  60.7000000  80.5010000  73.3440000  60.4000000  79.6420000
  73.6960000  61.3550000  80.7640000  68.0460000  82.0160000  70.0290000
  68.8380000  81.8830000  70.5480000  67.3360000  81.6970000  70.5870000
  86.4160000  59.4790000  69.5120000  85.5540000  59.8810000  69.6220000
  86.3970000  59.1100000  68.6290000  57.9610000  59.0910000  56.0620000
  57.0710000  58.7400000  56.0360000  58.5240000  58.3170000  56.0830000
  85.5620000  37.4170000  89.1200000  86.2360000  38.0660000  88.9200000
  85.6190000  36.7830000  88.4050000  52.7170000  45.3810000  91.8410000
  52.8510000  46.3130000  92.0090000  51.9210000  45.3450000  91.3100000
  80.9050000  88.9530000  58.8210000  81.8520000  88.9040000  58.6910000
  80.5790000  88.0990000  58.5360000  39.3110000  68.3440000  64.4600000
  39.7140000  67.5520000  64.8160000  39.3090000  68.9620000  65.1920000
  49.3210000  84.2280000  81.6490000  48.6250000  84.4160000  82.2790000
  49.9390000  83.6780000  82.1320000  46.6460000  77.3450000  79.4700000
  47.3530000  77.9310000  79.2010000  47.0830000  76.6540000  79.9680000
  82.8220000  81.6750000  56.9480000  82.9550000  81.5810000  56.0050000
  82.8780000  80.7810000  57.2880000  47.9210000  50.3560000  77.8910000
  48.1350000  51.2520000  77.6330000  46.9660000  50.3480000  77.9600000
  68.2420000  81.3270000  83.8020000  68.5260000  81.8900000  84.5220000
  69.0560000  81.0220000  83.4000000  54.3330000  43.9700000  74.1670000
  54.4460000  44.8640000  74.4920000  54.7870000  43.4230000  74.8090000
  89.0000000  78.7520000  69.6540000  88.8910000  79.7020000  69.6490000
  88.9630000  78.5010000  68.7310000  43.0340000  44.5600000  82.9820000
  43.4690000  44.6170000  83.8330000  42.7040000  45.4450000  82.8220000
  57.4030000  88.5100000  84.7960000  57.9020000  89.0000000  84.1420000
  57.4300000  87.6040000  84.4890000  61.1800000  52.5470000  83.1080000
  61.9890000  52.4100000  82.6160000  60.8970000  51.6660000  83.3550000
  72.7340000  38.6930000  81.7730000  71.8430000  38.5290000  81.4640000
  72.6580000  38.7160000  82.7270000  41.4520000  63.9050000  82.0620000
  40.8070000  63.3480000  82.4950000  40.9690000  64.7010000  81.8360000
  60.8210000  31.5910000  67.7550000  61.5730000  31.0000000  67.7570000
  60.0590000  31.0110000  67.7570000  74.5960000  31.0070000  90.4770000
  73.8030000  31.0590000  89.9430000  74.2780000  31.0000000  91.3800000
  56.7550000  76.0700000  69.4560000  56.3090000  75.3100000  69.0820000
  57.5260000  76.1930000  68.9020000  85.6390000  32.9970000  95.5300000
  85.2790000  32.5910000  94.7410000  86.5820000  33.0370000  95.3700000
  36.4960000  33.4950000  95.5790000  35.5770000  33.7480000  95.5000000
  36.7090000  33.6480000  96.5000000  59.7510000  57.0070000  92.3000000
  58.9440000  56.7960000  91.8300000  60.3190000  56.2500000  92.1560000
  86.7480000  62.2630000  64.5340000  86.6980000  61.3630000  64.8570000
  87.1820000  62.1890000  63.6840000  50.4550000  59.0580000  67.3660000
  51.0320000  58.6190000  67.9910000  49.7310000  59.3870000  67.8980000
  65.2760000  67.5540000  58.5090000  65.5540000  67.0150000  59.2500000
  66.0820000  67.7250000  58.0220000  42.7060000  69.8940000  64.6260000
  41.9710000  69.2960000  64.4890000  42.3870000  70.7410000  64.3120000
  31.0000000  84.1500000  56.1510000  31.8720000  84.5140000  56.0000000
  31.1490000  83.2130000  56.2750000  34.6910000  53.1350000  70.2460000
  35.0030000  52.5740000  70.9550000  33.7380000  53.0410000  70.2670000
  86.1120000  60.0160000  87.0480000  85.8000000  59.2760000  87.5690000
  85.3150000  60.4280000  86.7140000  71.1310000  43.9510000  79.9140000
  70.8020000  44.8490000  79.9470000  70.9860000  43.6750000  79.0080000
  82.2030000  72.2870000  74.9700000  82.3300000  73.1650000  75.3300000
  82.9780000  72.1360000  74.4280000  58.5580000  78.0710000  82.1720000
  59.2090000  78.2910000  81.5050000  58.1710000  77.2490000  81.8680000
  54.5990000  62.5130000  71.1410000  53.6470000  62.6020000  71.1920000
  54.7480000  61.5690000  71.0750000  83.2270000  63.0730000  81.3720000
  82.7430000  63.5670000  80.7100000  84.0670000  63.5280000  81.4420000
  72.7420000  42.6760000  66.0250000  73.6560000  42.7360000  65.7490000
  72.4500000  43.5850000  66.0910000  70.0900000  54.7270000  56.0540000
  70.4980000  53.8640000  56.0000000  69.1500000  54.5470000  56.0790000
  54.5140000  47.5880000  56.4590000  54.6200000  46.6880000  56.1510000
  53.7370000  47.9080000  56.0000000  48.2200000  43.3940000  87.3440000
  48.5030000  43.0640000  86.4920000  47.2740000  43.5110000  87.2540000
  41.2860000  34.5820000  64.8960000  40.5180000  34.5390000  64.3270000
  41.6050000  35.4800000  64.8020000  86.6700000  79.4690000  77.4860000
  86.0500000  79.8350000  78.1170000  87.0420000  80.2330000  77.0440000
  66.9650000  74.0420000  86.4960000  67.0130000  73.0860000  86.5160000
  66.4800000  74.2740000  87.2880000  44.6010000  82.0160000  76.8280000
  43.9860000  82.4800000  77.3950000  44.3090000  81.1050000  76.8500000
  88.0470000  48.3010000  91.8870000  89.0000000  48.2820000  91.9740000
  87.8910000  48.2600000  90.9440000  82.0070000  60.1110000  77.4960000
  82.9640000  60.1320000  77.5020000  81.7870000  59.1800000  77.4680000
  42.7550000  74.0930000  60.5630000  42.8550000  74.1920000  61.5100000
  43.5730000  73.6850000  60.2770000  64.6540000  43.5370000  66.4470000
  64.0810000  44.2060000  66.0720000  64.6950000  42.8540000  65.7770000
  80.1980000  59.9060000  75.4970000  79.5340000  59.4950000  76.0520000
  80.0450000  60.8460000  75.5970000  87.2910000  32.4240000  78.2490000
  86.5250000  32.9950000  78.2980000  86.9330000  31.5570000  78.0560000
  72.7570000  81.4930000  91.7610000  73.1650000  80.7170000  91.3770000
  73.4720000  82.1250000  91.8400000  65.0920000  54.3630000  77.7830000
  64.5450000  54.9360000  78.3190000  64.9140000  54.6360000  76.8820000
  31.4220000  55.8850000  71.9590000  31.0000000  55.0730000  71.6780000
  32.0610000  55.6080000  72.6170000  31.9170000  80.6460000  56.0000000
  31.0000000  80.3740000  56.0270000  32.3780000  79.9870000  56.5200000
  34.0340000  82.4490000  90.7940000  33.3550000  82.8750000  90.2710000
  33.5610000  81.8050000  91.3220000  85.5310000  52.8850000  82.9300000
  85.7600000  52.3340000  83.6780000  85.0210000  53.6030000  83.3080000
  38.5290000  78.5030000  96.5000000  39.4850000  78.5170000  96.4830000
  38.2710000  79.4030000  96.3000000  68.5880000  77.4440000  78.4040000
  69.0090000  76.5950000  78.2700000  67.7490000  77.3700000  77.9470000
  65.6920000  80.0010000  64.6200000  65.9690000  79.6870000  63.7590000
  66.2800000  79.5620000  65.2350000  76.4840000  31.4020000  85.0500000
  75.7020000  31.0000000  84.6720000  77.2120000  31.0160000  84.5620000
  50.6100000  77.9210000  58.4930000  51.0750000  78.6050000  58.9740000
  49.6830000  78.1280000  58.6150000  51.4720000  39.9040000  70.1920000
  51.0160000  39.1550000  69.8090000  52.3860000  39.6250000  70.2500000
  55.4540000  65.0270000  71.3800000  54.9720000  64.9180000  72.1990000
  55.3470000  65.9530000  71.1590000  88.8690000  69.1870000  84.0700000
  88.3350000  69.0800000  83.2830000  89.0000000  68.2950000  84.3930000
  79.2060000  67.5660000  96.5000000  79.7720000  68.3250000  96.3650000
  78.3220000  67.8920000  96.3250000  62.9100000  82.5270000  96.5000000
  62.7130000  81.5910000  96.4900000  62.0520000  82.9530000  96.4920000
  34.8450000  33.1220000  77.3600000  34.3580000  33.8420000  77.7610000
  35.7320000  33.2070000  77.7120000  44.8500000  56.8540000  62.0120000
  45.7880000  56.6640000  62.0200000  44.4310000  55.9930000  61.9930000
  72.1610000  85.7740000  56.4800000  71.3800000  85.4990000  56.0000000
  72.4820000  86.5370000  56.0000000  80.7630000  60.7830000  95.1530000
  80.3850000  61.5690000  95.5480000  80.3650000  60.0570000  95.6340000
  81.4920000  69.2280000  73.9030000  81.2950000  70.0300000  74.3870000
  80.7020000  68.6940000  73.9920000  59.3240000  58.4490000  76.0580000
  60.0070000  58.2130000  76.6860000  58.7370000  57.6920000  76.0460000
  84.7610000  61.7060000  60.2920000  85.3250000  62.1850000  59.6840000
  85.0370000  60.7930000  60.2060000  62.8000000  40.8170000  80.9480000
  62.5470000  40.3290000  81.7310000  62.4790000  40.2860000  80.2200000
  56.0210000  50.0850000  72.0250000  55.3100000  50.4160000  71.4760000
  56.7500000  49.9520000  71.4200000  49.4550000  63.0400000  76.6430000
  48.6400000  62.9630000  77.1390000  49.8880000  62.1940000  76.7600000
  78.2550000  72.3370000  83.4860000  77.6260000  72.0910000  84.1640000
  78.7470000  71.5340000  83.3120000  33.3230000  74.1540000  82.6350000
  32.4460000  74.4960000  82.8050000  33.6310000  74.6500000  81.8750000
  76.5660000  35.9220000  57.6990000  76.9040000  36.2950000  56.8850000
  76.1890000  36.6680000  58.1660000  71.3460000  60.4630000  96.5000000
  70.7460000  59.7170000  96.4990000  72.2180000  60.0690000  96.5000000
  37.1290000  76.2670000  66.6690000  37.3180000  77.0260000  67.2200000
  37.6140000  75.5490000  67.0760000  75.5340000  33.4470000  56.0000000
  74.6100000  33.1960000  56.0150000  75.5220000  34.4050000  56.0090000
  66.0770000  44.5980000  70.0740000  66.9990000  44.4940000  69.8410000
  65.8410000  43.7700000  70.4940000  65.1590000  62.5390000  67.9430000
  66.0330000  62.9290000  67.9490000  65.3170000  61.5970000  68.0160000
  56.3220000  51.0630000  91.1570000  55.9840000  50.2540000  91.5400000
  55.9900000  51.0600000  90.2590000  31.9390000  55.7840000  66.1550000
  32.3540000  56.6450000  66.1160000  31.0000000  55.9670000  66.1100000
  39.0710000  67.1470000  75.0770000  38.9860000  66.8360000  75.9780000
  39.9570000  66.8930000  74.8180000  77.4550000  88.9630000  68.1700000
  77.1160000  88.9990000  69.0640000  78.4070000  89.0000000  68.2730000
  70.9580000  53.9840000  73.6340000  71.1650000  54.1260000  74.5570000
  71.5810000  54.5350000  73.1610000  86.2470000  48.3180000  89.0180000
  85.4850000  48.5340000  88.4810000  86.5300000  47.4600000  88.6990000
  66.7590000  56.8420000  84.8700000  66.3810000  56.1280000  84.3570000
  67.7000000  56.6630000  84.8750000  56.0230000  51.8650000  86.4650000
  56.9690000  51.8390000  86.3210000  55.9270000  52.0720000  87.3940000
  81.2190000  86.2680000  63.7710000  81.2730000  85.4840000  64.3170000
  82.1250000  86.4460000  63.5170000  80.9930000  71.8080000  86.1390000
  80.7760000  70.9030000  86.3600000  80.2490000  72.1130000  85.6180000
  61.8830000  88.9750000  61.2230000  62.3380000  88.8070000  60.3990000
  62.5790000  89.0000000  61.8810000  86.7880000  53.6410000  59.3560000
  87.0550000  54.3990000  58.8360000  85.8500000  53.5510000  59.1850000
  72.7740000  50.3770000  63.9870000  72.2050000  51.0860000  63.6900000
  73.6320000  50.5860000  63.6160000  36.4500000  52.3300000  83.2630000
  37.1730000  52.2140000  82.6460000  36.5690000  53.2150000  83.6080000
  52.8310000  49.3400000  70.8830000  53.4140000  48.6870000  71.2700000
  52.8320000  50.0640000  71.5090000  67.3290000  41.8150000  75.7920000
  67.0430000  42.6940000  76.0400000  66.5320000  41.2850000  75.8260000
  40.8410000  37.6620000  74.1670000  41.5710000  38.1720000  74.5170000
  40.6460000  37.0200000  74.8510000  39.6050000  57.5900000  94.1690000
  39.9120000  58.4960000  94.1720000  40.4050000  57.0660000  94.1100000
  54.1880000  31.0390000  68.0460000  55.1390000  31.0130000  68.1530000
  54.0530000  31.0000000  67.0990000  68.4550000  74.6040000  56.0000000
  67.6070000  75.0390000  56.0860000  68.4020000  73.8560000  56.5950000
  60.0920000  57.0990000  88.7850000  59.7340000  57.8100000  88.2530000
  59.5620000  56.3360000  88.5550000  51.1700000  35.7990000  72.8610000
  50.2270000  35.6650000  72.7610000  51.5360000  35.5720000  72.0060000
  74.6890000  34.1170000  91.6610000  75.0700000  33.3650000  91.2080000
  73.8130000  34.2050000  91.2840000  49.8690000  40.4120000  81.6420000
  50.7740000  40.2920000  81.9280000  49.8420000  41.3060000  81.2980000
  49.4960000  55.2510000  87.9900000  49.0270000  55.6730000  87.2700000
  49.7840000  55.9750000  88.5460000  78.6110000  31.6350000  71.3380000
  79.3100000  31.0000000  71.4940000  78.7880000  32.3440000  71.9570000
  71.6880000  88.7790000  64.3720000  71.3030000  87.9350000  64.1390000
  71.2920000  89.0000000  65.2150000  37.4100000  53.3520000  92.4210000
  37.6200000  53.4480000  93.3500000  37.7680000  54.1400000  92.0120000
  71.2110000  33.3420000  85.3170000  71.1490000  33.2590000  86.2680000
  71.8960000  33.9970000  85.1780000  88.7150000  42.2430000  65.6140000
  87.7940000  42.3160000  65.3630000  89.0000000  43.1480000  65.7440000
  31.0000000  79.2300000  92.1100000  31.2880000  79.9910000  91.6050000
  31.0640000  78.4980000  91.4970000  38.3250000  68.4550000  85.3050000
  37.7940000  68.9730000  85.9100000  38.6420000  67.7210000  85.8330000
  39.4710000  51.5160000  79.6640000  40.3290000  51.5040000  80.0860000
  38.8460000  51.4870000  80.3890000  47.0060000  45.7920000  61.1820000
  46.0770000  45.9940000  61.2950000  47.4370000  46.6470000  61.1640000
  54.4580000  33.6800000  61.8710000  54.7210000  34.5710000  62.1000000
  54.9250000  33.4940000  61.0560000  52.8940000  56.1780000  70.1140000
  52.3180000  56.4950000  70.8090000  52.5330000  56.5570000  69.3120000
  76.2790000  74.1030000  91.2430000  77.1740000  73.9370000  90.9480000
  75.9370000  74.7470000  90.6230000  63.5510000  46.7860000  77.6080000
  63.8040000  47.6360000  77.2490000  63.8420000  46.1520000  76.9520000
  87.8390000  47.3750000  80.1100000  86.9490000  47.3040000  80.4560000
  88.2320000  46.5190000  80.2810000  85.4340000  58.3440000  58.4910000
  84.5930000  58.0770000  58.8620000  85.9980000  57.5770000  58.5990000
  52.5420000  61.8760000  68.7950000  52.1140000  61.4940000  68.0300000
  51.8230000  62.2230000  69.3250000  77.8460000  79.7770000  56.0070000
  77.1920000  80.4760000  56.0140000  78.6870000  80.2360000  56.0000000
  62.6620000  52.9210000  77.9690000  63.0990000  52.7380000  77.1370000
  61.9440000  53.5110000  77.7390000  46.8090000  74.6380000  85.5880000
  47.5710000  75.1930000  85.4250000  47.1770000  73.7830000  85.8090000
  88.9310000  54.2340000  87.9390000  88.0300000  54.0990000  88.2310000
  88.9980000  55.1790000  87.7980000  55.5060000  42.7940000  92.4660000
  55.2640000  41.9080000  92.1980000  54.6710000  43.2290000  92.6390000
  75.1990000  64.1880000  60.6550000  75.7240000  64.4330000  59.8920000
  74.7460000  64.9940000  60.9030000  39.8160000  78.8040000  68.7990000
  39.2330000  78.1610000  68.3970000  40.6710000  78.3740000  68.8210000
  74.9470000  81.6000000  63.7010000  74.1870000  81.2540000  63.2330000
  75.6960000  81.1600000  63.2980000  42.5640000  45.8670000  79.0400000
  43.5040000  45.7530000  78.9030000  42.4480000  46.8130000  79.1300000
  56.4420000  68.5040000  67.4720000  55.6270000  68.8140000  67.0790000
  56.9820000  69.2900000  67.5570000  49.9610000  83.4600000  72.5010000
  49.3320000  84.1730000  72.6120000  50.0810000  83.1080000  73.3830000
  63.3420000  31.4090000  65.8220000  62.6780000  32.0980000  65.8020000
  64.1720000  31.8730000  65.7080000  68.5310000  65.2130000  63.7010000
  68.6380000  64.3850000  64.1670000  69.1630000  65.8040000  64.1110000
  33.3360000  65.0250000  78.3150000  32.8520000  64.2130000  78.4630000
  33.8000000  65.1810000  79.1390000  52.3870000  77.4440000  94.3080000
  52.0090000  76.8050000  94.9120000  51.7120000  77.5720000  93.6410000
  71.9330000  34.0830000  59.6530000  71.0490000  33.9970000  59.2960000
  72.0880000  35.0270000  59.6860000  67.7230000  45.5880000  58.5330000
  67.9370000  44.6920000  58.2770000  66.8990000  45.7760000  58.0840000
  77.8070000  70.4420000  90.3730000  77.8220000  69.4960000  90.5150000
  78.6560000  70.7460000  90.6970000  35.3310000  82.7890000  64.3920000
  34.4300000  82.7570000  64.7150000  35.5030000  83.7210000  64.2540000
  31.0730000  55.0520000  93.4840000  31.9550000  55.0760000  93.8530000
  31.2090000  55.0320000  92.5360000  47.0590000  76.8390000  91.6220000
  47.3270000  77.7390000  91.4370000  46.7640000  76.4980000  90.7770000
  59.1060000  83.3580000  61.0440000  59.1470000  84.3110000  60.9710000
  58.1790000  83.1680000  61.1920000  78.2010000  67.6440000  78.4870000
  78.2820000  66.7140000  78.2800000  78.7490000  67.7660000  79.2630000
  81.8140000  65.5130000  60.4560000  82.1430000  65.7670000  61.3180000
  81.6470000  66.3430000  60.0090000  86.7480000  65.2120000  69.9430000
  87.0090000  66.1210000  69.7970000  87.2120000  64.7180000  69.2670000
  44.7320000  84.8330000  59.4430000  44.8890000  84.5640000  58.5380000
  45.5410000  84.6080000  59.9040000  31.2370000  41.2800000  58.7250000
  31.0000000  40.3540000  58.7760000  32.1140000  41.3240000  59.1060000
  49.0310000  71.8420000  64.1730000  49.4560000  71.9190000  65.0270000
  49.7410000  71.6180000  63.5710000  83.5080000  54.8660000  89.7800000
  83.0580000  54.5810000  90.5750000  83.0670000  54.3950000  89.0730000
  75.2790000  83.2320000  85.5180000  74.4680000  83.5410000  85.1140000
  75.1080000  82.3120000  85.7260000  71.3990000  68.1280000  73.7640000
  71.0920000  67.2960000  74.1240000  72.3530000  68.0440000  73.7450000
  62.9280000  61.5550000  84.8910000  62.4040000  61.0110000  85.4790000
  63.4140000  62.1390000  85.4740000  31.3420000  72.3460000  66.4520000
  31.0000000  71.8280000  67.1800000  31.1270000  73.2510000  66.6790000
  47.6340000  83.2340000  90.1960000  48.2430000  82.7530000  90.7560000
  48.1900000  83.8290000  89.6920000  60.9600000  81.2670000  64.7640000
  60.9740000  80.7160000  65.5460000  61.8070000  81.1120000  64.3460000
  71.9890000  41.8410000  83.0990000  71.9270000  41.6910000  82.1560000
  72.5110000  42.6390000  83.1810000  36.5800000  86.8150000  73.1220000
  37.4440000  86.4070000  73.0700000  35.9830000  86.0910000  73.3130000
  59.7310000  51.3420000  66.4430000  60.0910000  51.2940000  65.5580000
  60.2430000  50.7080000  66.9450000  84.1320000  84.3260000  56.1660000
  85.0500000  84.2350000  56.4170000  84.0200000  85.2630000  56.0000000
  55.1320000  57.6240000  77.9960000  55.7740000  57.3850000  77.3280000
  54.9900000  58.5620000  77.8680000  34.6450000  67.7290000  61.2440000
  34.3530000  68.5590000  60.8670000  35.5220000  67.9130000  61.5810000
  72.2340000  35.6370000  96.2380000  72.2720000  36.5570000  96.5000000
  73.1460000  35.3440000  96.2600000  52.7810000  53.6890000  61.1540000
  51.8990000  53.8650000  60.8270000  53.0560000  52.8990000  60.6870000
  83.2420000  62.2020000  65.5400000  84.0750000  62.4920000  65.9110000
  82.6640000  62.1020000  66.2970000  82.9770000  67.8980000  69.4900000
  82.6820000  68.7980000  69.6310000  83.5900000  67.7320000  70.2060000
  80.4310000  43.7790000  78.5500000  80.7700000  44.6300000  78.8260000
  80.1110000  43.3750000  79.3570000  34.9070000  55.6500000  56.9520000
  34.9990000  55.6770000  56.0000000  35.0640000  56.5520000  57.2340000
  84.1640000  75.3700000  65.7780000  83.7990000  75.2440000  64.9020000
  84.8400000  74.6970000  65.8550000  85.9030000  42.4470000  79.3350000
  85.5440000  41.5720000  79.4790000  86.0510000  42.4930000  78.3900000
  39.0380000  84.2010000  60.4900000  38.3890000  83.6670000  60.0320000
  39.7940000  83.6230000  60.5940000  63.8020000  59.8830000  96.4200000
  64.7490000  59.9980000  96.5000000  63.5330000  60.5440000  95.7810000
  73.4560000  75.7700000  74.9940000  73.3700000  75.2430000  75.7890000
  73.6030000  75.1300000  74.2970000  44.7850000  67.8330000  91.1780000
  44.5690000  66.9040000  91.1070000  45.2970000  68.0210000  90.3910000
  44.2630000  65.5140000  70.6170000  44.1100000  65.0480000  71.4390000
  43.8280000  66.3590000  70.7360000  48.4460000  58.7630000  56.0150000
  48.6900000  59.6880000  56.0000000  49.2810000  58.2940000  56.0320000
  47.6140000  84.6540000  79.3710000  47.3220000  84.7140000  78.4610000
  46.8080000  84.7070000  79.8850000  62.0910000  86.3260000  92.6760000
  62.7790000  86.4920000  93.3200000  61.2750000  86.4220000  93.1660000
  84.3310000  88.3440000  77.4980000  85.0010000  89.0050000  77.6700000
  83.5200000  88.8440000  77.4010000  45.6900000  35.7320000  64.5710000
  46.1040000  35.2090000  63.8840000  45.6960000  36.6260000  64.2290000
  36.5460000  40.5610000  64.2620000  36.0780000  39.7270000  64.2230000
  35.8660000  41.2240000  64.1420000  47.6230000  38.0750000  84.7210000
  47.5960000  37.1840000  85.0700000  48.4220000  38.1030000  84.1950000
  80.2060000  56.9120000  61.7690000  79.4850000  57.5370000  61.6900000
  79.7790000  56.0760000  61.9580000  78.2280000  61.9660000  61.9110000
  77.9010000  62.5640000  61.2400000  78.3320000  61.1290000  61.4570000
  69.9490000  36.8650000  85.3390000  70.8130000  37.2730000  85.2970000
  70.0850000  35.9780000  85.0020000  31.0000000  84.1820000  68.5720000
  31.0460000  84.8340000  67.8720000  31.9080000  84.0690000  68.8540000
  63.6770000  67.2620000  63.8990000  63.2550000  67.5760000  63.1000000
  62.9550000  66.9460000  64.4430000  88.0630000  71.1160000  85.4400000
  87.7150000  70.7310000  86.2440000  87.2920000  71.2560000  84.8890000
  52.6650000  38.2620000  66.9190000  52.6720000  39.0970000  66.4510000
  51.8310000  38.2570000  67.3890000  52.9570000  89.0000000  78.2590000
  53.1570000  88.2120000  78.7640000  53.5860000  88.9890000  77.5370000
  50.6470000  66.7480000  65.6640000  50.5990000  66.0190000  66.2820000
  49.7410000  66.8870000  65.3860000  48.5020000  72.9630000  75.9450000
  49.4420000  72.9420000  76.1250000  48.1710000  72.1400000  76.3040000
  86.2240000  51.9330000  75.1740000  85.7600000  51.6040000  74.4050000
  86.7360000  51.1860000  75.4840000  46.4790000  39.5800000  60.9220000
  47.1220000  39.1450000  60.3630000  46.9540000  40.3160000  61.3080000
  62.7510000  61.9730000  68.3030000  62.0820000  61.8090000  67.6380000
  62.6990000  62.9150000  68.4680000  47.2330000  86.4750000  73.1700000
  46.5060000  86.8920000  73.6310000  47.6390000  87.1850000  72.6710000
  82.2970000  79.2900000  96.4940000  81.3880000  79.4060000  96.2180000
  82.5660000  78.4610000  96.0950000  68.1070000  46.2260000  95.8920000
  67.9380000  45.3090000  96.1080000  68.6830000  46.1900000  95.1280000
  84.1250000  76.7630000  70.8820000  83.4300000  77.4190000  70.8460000
  83.6640000  75.9290000  70.9740000  85.9790000  75.0920000  70.5370000
  86.5310000  75.8420000  70.3180000  86.5980000  74.3940000  70.7530000
  55.5500000  78.5110000  68.4280000  56.4770000  78.3640000  68.2420000
  55.1490000  77.6450000  68.3470000  45.1190000  42.1910000  61.2500000
  44.3730000  42.0410000  61.8310000  45.8180000  42.4920000  61.8300000
  59.0210000  46.6500000  75.8000000  59.4420000  45.9460000  76.2920000
  59.4570000  46.6430000  74.9480000  43.3760000  88.2460000  83.9420000
  43.4180000  89.0000000  84.5300000  43.6640000  87.5070000  84.4780000
  42.5240000  80.8920000  94.2870000  41.7200000  80.3730000  94.2950000
  43.2220000  80.2520000  94.1430000  61.2150000  78.3650000  60.7970000
  61.8410000  77.7460000  60.4210000  60.6590000  77.8290000  61.3640000
  64.8420000  88.3900000  59.8950000  64.8190000  88.9710000  59.1350000
  64.9590000  88.9760000  60.6430000  38.6840000  51.1470000  70.8110000
  38.1210000  50.4800000  71.2040000  38.0990000  51.8870000  70.6440000
  41.3810000  83.9380000  75.1620000  42.0740000  84.0360000  75.8150000
  40.6670000  83.5070000  75.6320000  53.9490000  88.7160000  68.9080000
  54.3180000  88.8600000  69.7790000  53.1300000  88.2450000  69.0690000
  53.3380000  60.7190000  65.9010000  53.9270000  60.5570000  65.1640000
  52.4660000  60.5220000  65.5590000  80.7190000  60.7870000  62.8330000
  81.4960000  61.2590000  63.1320000  80.0530000  60.9780000  63.4940000
  37.8920000  65.4530000  70.1210000  38.2320000  66.2580000  69.7310000
  37.1490000  65.2130000  69.5670000  60.2250000  88.4870000  86.4310000
  60.1310000  87.6210000  86.0350000  59.5060000  89.0000000  86.0590000
  74.1400000  45.1460000  89.6450000  75.0470000  44.8400000  89.6620000
  74.2000000  46.0570000  89.3550000  77.4100000  44.5440000  88.9020000
  78.1180000  43.9010000  88.8650000  77.8160000  45.3270000  89.2760000
  64.7840000  73.2280000  85.3060000  65.1340000  73.9580000  84.7960000
  64.3620000  73.6410000  86.0590000  80.5150000  71.5600000  76.8920000
  79.6820000  71.6060000  77.3620000  80.6460000  70.6260000  76.7260000
  43.1450000  31.0000000  62.8140000  42.3650000  31.0170000  62.2600000
  43.8760000  31.0930000  62.2030000  56.6580000  47.4070000  75.4930000
  55.9520000  46.7840000  75.3210000  56.9570000  47.6760000  74.6240000
  77.2950000  60.5610000  68.2180000  76.8750000  59.7520000  67.9260000
  78.2200000  60.4420000  68.0040000  40.9870000  85.6170000  84.0210000
  41.6670000  85.0700000  83.6270000  41.2530000  86.5140000  83.8170000
  48.2170000  78.5320000  56.0210000  48.9450000  77.9120000  56.0000000
  48.6350000  79.3940000  56.0110000  70.6640000  56.4730000  94.2330000
  70.0550000  55.7430000  94.1240000  71.5260000  56.0590000  94.2940000
  62.1430000  74.6760000  77.9780000  61.3570000  74.6760000  78.5240000
  62.8560000  74.8740000  78.5850000  56.1460000  86.5250000  78.3760000
  55.6310000  86.9290000  77.6780000  55.5160000  85.9900000  78.8590000
  55.1880000  66.3600000  89.8600000  55.9200000  66.3300000  89.2450000
  55.0950000  67.2880000  90.0790000  36.3070000  47.1090000  75.8030000
  36.1810000  47.1390000  76.7510000  35.4580000  47.3630000  75.4400000
  34.1470000  88.1630000  63.8220000  34.5970000  87.4240000  63.4120000
  34.5600000  88.9380000  63.4410000  68.0540000  86.7790000  68.7310000
  67.4000000  86.3730000  68.1630000  68.8510000  86.2700000  68.5810000
  42.2220000  88.8980000  65.3560000  42.0140000  88.7940000  64.4280000
  41.3710000  89.0000000  65.7830000  62.5300000  77.6610000  68.0760000
  62.6960000  77.6930000  69.0180000  62.9330000  76.8410000  67.7890000
  38.5580000  31.9720000  56.0000000  37.7130000  32.4210000  56.0040000
  38.3350000  31.0410000  56.0360000  57.1990000  58.0340000  71.0710000
  56.8100000  57.2430000  71.4460000  58.1220000  57.8120000  70.9480000
  65.2850000  31.0000000  85.5700000  66.0990000  31.0390000  85.0680000
  65.0300000  31.9160000  85.6850000  39.0690000  62.1620000  74.2700000
  38.3560000  62.3630000  73.6650000  39.5550000  61.4560000  73.8430000
  32.5930000  39.6780000  56.0000000  31.6950000  39.3510000  56.0360000
  32.6820000  40.2230000  56.7820000  76.2850000  38.4770000  65.5380000
  76.0520000  38.6540000  66.4490000  76.6050000  37.5740000  65.5430000
  87.4190000  51.9430000  80.3470000  87.2030000  52.8670000  80.4730000
  87.4320000  51.8270000  79.3960000  82.6040000  43.9010000  56.9330000
  82.7490000  43.0740000  57.3920000  82.7650000  43.6960000  56.0120000
  78.9100000  65.4750000  81.1150000  79.4820000  65.6400000  80.3660000
  78.5960000  66.3430000  81.3720000  34.1680000  86.4020000  80.4430000
  34.2310000  86.5700000  79.5030000  33.3200000  85.9710000  80.5540000
  62.8880000  71.2010000  72.8260000  63.7570000  70.8010000  72.8390000
  63.0550000  72.1360000  72.7030000  71.8080000  48.6220000  88.1930000
  72.6020000  48.4600000  87.6830000  71.0930000  48.3610000  87.6130000
  59.6880000  33.1070000  85.5270000  58.9840000  32.4770000  85.3720000
  59.7890000  33.5640000  84.6910000  51.5930000  53.8090000  73.5870000
  51.2510000  54.3090000  72.8460000  51.5110000  52.8940000  73.3170000
  86.1670000  52.6490000  69.4640000  86.2860000  51.8060000  69.0270000
  85.2360000  52.6740000  69.6880000  55.2880000  70.8080000  63.2030000
  54.7440000  70.4580000  63.9080000  54.6610000  71.1320000  62.5550000
  43.8080000  72.7950000  77.8740000  42.9190000  72.4680000  77.7380000
  43.9190000  72.7980000  78.8250000  61.9170000  37.2140000  89.6880000
  61.3280000  37.3460000  88.9450000  62.2390000  38.0900000  89.8980000
  82.3590000  88.1570000  56.0000000  82.7880000  89.0000000  56.1470000
  81.4230000  88.3530000  56.0460000  52.0590000  42.3330000  76.5010000
  51.8630000  43.2590000  76.3620000  52.7140000  42.3280000  77.1990000
  60.3970000  39.2490000  77.7050000  61.0950000  39.9020000  77.7460000
  59.5890000  39.7620000  77.7000000  88.6560000  86.5540000  68.8350000
  89.0000000  85.8470000  69.3800000  88.9950000  86.3690000  67.9590000
  74.1790000  42.8870000  77.7060000  73.2630000  42.9090000  77.9840000
  74.6740000  43.1140000  78.4940000  37.8350000  58.3540000  71.5470000
  37.0800000  57.7670000  71.5310000  37.4630000  59.2280000  71.4230000
  53.6340000  42.8100000  70.8720000  53.3900000  43.2390000  71.6930000
  53.3140000  41.9130000  70.9660000  50.5900000  31.5620000  81.9810000
  49.9080000  31.0000000  81.6130000  51.3630000  31.0000000  82.0320000
  70.3880000  70.3970000  93.2980000  70.5060000  71.3180000  93.0660000
  70.1660000  69.9680000  92.4710000  41.0210000  34.7600000  69.1200000
  41.0580000  35.5120000  69.7120000  40.1140000  34.4580000  69.1720000
  66.0170000  71.0390000  85.4750000  65.8830000  70.1540000  85.8120000
  66.1660000  70.9180000  84.5370000  44.2980000  59.6830000  73.4680000
  45.0720000  59.5180000  74.0060000  44.1900000  58.8840000  72.9520000
  43.0550000  51.7830000  74.7980000  43.8680000  51.8980000  74.3060000
  42.7910000  52.6720000  75.0350000  44.3510000  82.3070000  96.4680000
  44.1800000  81.4280000  96.1310000  43.4900000  82.7230000  96.5000000
  85.5730000  83.5040000  60.1180000  85.4900000  84.2140000  60.7550000
  85.2700000  83.8850000  59.2930000  36.9130000  52.5520000  85.9940000
  36.5000000  51.7380000  85.7060000  37.4120000  52.3050000  86.7730000
  66.2000000  55.8130000  81.8830000  65.3810000  55.5280000  81.4780000
  66.6380000  55.0000000  82.1350000  65.7120000  33.5590000  74.1340000
  65.1900000  33.4010000  73.3480000  65.1250000  33.3420000  74.8600000
  66.9500000  70.2860000  56.5570000  66.5980000  69.5910000  56.0010000
  67.5810000  70.7420000  56.0010000  76.9380000  71.9090000  56.8940000
  76.8200000  71.5890000  56.0000000  76.6300000  72.8160000  56.8660000
  76.6540000  51.1360000  64.6340000  76.0960000  50.9850000  63.8710000
  76.9830000  52.0270000  64.5190000  76.8450000  88.9650000  88.4080000
  77.4580000  89.0000000  89.1420000  76.7340000  88.0300000  88.2320000
  70.8230000  53.3860000  64.3610000  71.6080000  53.2040000  64.8760000
  71.1350000  53.9130000  63.6250000  51.8270000  42.3510000  96.4580000
  52.3190000  41.5310000  96.4580000  52.4970000  43.0340000  96.5000000
  58.2380000  50.8400000  75.8980000  58.9400000  50.1940000  75.9670000
  58.6910000  51.6830000  75.8570000  55.5950000  44.1160000  67.1610000
  55.2470000  44.7420000  66.5260000  56.0100000  44.6590000  67.8310000
  71.4810000  82.1370000  79.8370000  71.1500000  82.9160000  79.3900000
  70.6980000  81.6230000  80.0350000  75.6490000  83.8320000  67.6570000
  76.4890000  83.9560000  68.0990000  75.0610000  83.5190000  68.3450000
  31.1390000  82.2780000  82.0130000  31.0000000  82.1260000  81.0780000
  31.0350000  81.4140000  82.4140000  64.4960000  58.6500000  87.2710000
  64.5460000  58.7260000  88.2230000  65.2430000  58.1000000  87.0340000
  41.1120000  45.0000000  90.6780000  40.3300000  44.8160000  91.1980000
  41.4890000  44.1380000  90.5000000  35.5070000  89.0000000  71.2480000
  35.0950000  88.1760000  70.9900000  35.6150000  88.9280000  72.1970000
  36.2490000  76.0730000  77.3630000  37.0080000  75.9240000  77.9270000
  35.6080000  75.4210000  77.6470000  73.2980000  81.9880000  56.8360000
  73.1090000  82.4130000  56.0000000  73.0780000  81.0670000  56.6930000
  57.5580000  49.5920000  96.4830000  56.6290000  49.8220000  96.5000000
  58.0140000  50.4340000  96.4740000  60.0800000  43.5230000  77.5050000
  59.9420000  42.5870000  77.3560000  59.2690000  43.8230000  77.9160000
  80.5150000  78.4240000  75.8650000  80.9430000  78.6060000  76.7020000
  81.0820000  77.7800000  75.4400000  41.8970000  75.8100000  82.5850000
  42.3880000  75.1720000  82.0670000  41.4280000  76.3360000  81.9360000
  31.2000000  64.9690000  61.8190000  31.0000000  64.1350000  62.2430000
  31.4370000  64.7320000  60.9220000  64.0140000  68.6780000  86.5720000
  63.2520000  68.6280000  85.9950000  64.0080000  67.8480000  87.0500000
  70.8100000  75.2540000  95.1910000  71.0450000  75.8540000  95.8990000
  70.0000000  74.8380000  95.4880000  54.8300000  85.2470000  89.5160000
  54.2980000  85.2330000  88.7200000  55.7300000  85.1510000  89.2040000
  89.0000000  65.5540000  59.1140000  88.9320000  64.6550000  59.4340000
  89.0000000  65.4700000  58.1600000  82.9940000  82.9990000  73.1710000
  82.4960000  82.2440000  72.8590000  83.9100000  82.7290000  73.0950000
  86.8420000  42.4130000  68.7640000  87.3640000  42.4530000  67.9630000
  87.3910000  42.8300000  69.4290000  76.9870000  44.0650000  78.4600000
  77.8810000  44.3920000  78.3560000  76.4730000  44.8400000  78.6890000
  69.5390000  34.9940000  62.4430000  69.5520000  34.2850000  61.8010000
  69.4630000  35.7920000  61.9180000  88.7200000  77.9290000  76.6490000
  89.0000000  77.8280000  77.5580000  88.9990000  78.8130000  76.4090000
  35.4560000  50.2210000  73.6990000  36.1880000  50.3620000  73.1000000
  35.4290000  49.2720000  73.8260000  52.4760000  62.6230000  57.6010000
  51.5840000  62.4230000  57.8840000  52.4300000  63.5260000  57.2850000
  45.7050000  51.1530000  66.9260000  46.6180000  51.3780000  67.1050000
  45.2040000  51.8970000  67.2600000  66.2860000  70.6050000  75.8490000
  66.0490000  71.5210000  75.7120000  67.2330000  70.5780000  75.7070000
  53.0590000  45.6950000  89.1120000  52.1560000  45.5700000  88.8220000
  53.5920000  45.3630000  88.3890000  39.7470000  42.4460000  76.2490000
  40.4830000  42.4520000  76.8610000  39.0090000  42.7850000  76.7580000
  69.9050000  85.3370000  63.4400000  70.8260000  85.5000000  63.2360000
  69.4560000  86.1440000  63.1850000  71.0860000  37.2090000  76.2930000
  71.7920000  37.8480000  76.3850000  71.5000000  36.3650000  76.4740000
  55.6410000  47.0370000  58.6220000  55.5880000  47.9870000  58.7270000
  56.5010000  46.8870000  58.2280000  54.3340000  52.1230000  92.2420000
  53.9530000  53.0000000  92.1980000  54.9800000  52.1780000  92.9480000
  54.2720000  49.6530000  73.7640000  54.1080000  50.5020000  74.1750000
  55.0560000  49.3220000  74.2020000  85.6730000  58.4900000  80.8380000
  84.7960000  58.3310000  81.1870000  85.8730000  59.3910000  81.0940000
  39.7040000  57.2300000  59.1880000  40.5110000  56.8460000  58.8440000
  39.5410000  57.9880000  58.6260000  74.7440000  31.0000000  61.0640000
  75.3370000  31.6400000  60.6690000  74.1630000  31.5210000  61.6190000
  86.5080000  50.5430000  59.7320000  86.7620000  50.9180000  58.8890000
  86.6250000  49.5990000  59.6190000  85.6320000  37.9600000  83.5610000
  85.9770000  38.0850000  82.6770000  84.8220000  37.4650000  83.4350000
  86.6960000  62.6600000  70.6380000  86.8480000  61.7210000  70.7410000
  86.8560000  63.0260000  71.5090000  76.1290000  51.2530000  75.9130000
  76.7190000  50.7710000  75.3340000  76.1910000  52.1610000  75.6170000
  31.0000000  57.2010000  94.7600000  31.1190000  58.1160000  94.5070000
  31.1230000  57.1970000  95.7100000  34.6330000  87.5080000  90.7940000
  34.3020000  87.0900000  91.5890000  34.2660000  88.3920000  90.8170000
  86.3050000  31.9260000  61.0450000  86.6110000  32.6310000  60.4750000
  86.8270000  32.0180000  61.8420000  70.6530000  67.7410000  63.4910000
  71.5030000  67.3400000  63.3150000  70.7540000  68.6510000  63.2100000
  34.5560000  58.1700000  85.9260000  33.8850000  57.8210000  86.5120000
  35.1560000  58.6440000  86.5030000  63.1880000  36.9310000  86.4870000
  63.3300000  36.4190000  87.2830000  64.0540000  37.2740000  86.2640000
  65.6140000  45.5890000  67.5040000  66.3960000  46.0810000  67.7540000
  64.9240000  46.2490000  67.4440000  86.6570000  39.4210000  77.2610000
  86.8230000  40.0650000  77.9490000  86.0090000  38.8270000  77.6390000
  43.8250000  39.9890000  68.9450000  43.3260000  39.5590000  69.6400000
  44.7310000  39.7220000  69.1010000  85.1710000  41.3850000  61.3560000
  84.6290000  40.9460000  60.7000000  86.0710000  41.1890000  61.0940000
  58.5040000  31.3470000  64.1340000  59.2420000  31.0000000  64.6340000
  58.6280000  31.0000000  63.2500000  70.8300000  36.3760000  71.1900000
  71.7790000  36.3980000  71.3100000  70.6830000  35.6660000  70.5650000
  81.9510000  36.0830000  59.4570000  82.6610000  36.1000000  60.0990000
  81.5990000  36.9730000  59.4660000  51.6230000  45.2910000  61.9740000
  51.6230000  44.7950000  61.1560000  52.3530000  44.9270000  62.4750000
  51.2050000  80.9820000  64.8980000  50.6980000  80.1840000  65.0460000
  52.0260000  80.6750000  64.5110000  65.6400000  52.1210000  94.3270000
  66.3800000  51.9640000  94.9130000  65.2640000  52.9480000  94.6300000
  39.2800000  51.5190000  59.9900000  39.0290000  51.1120000  60.8200000
  39.9830000  52.1260000  60.2240000  78.0060000  74.7670000  62.5620000
  77.8110000  73.8300000  62.5590000  77.7250000  75.0740000  61.7000000
  87.2420000  55.4410000  81.5460000  86.9450000  56.3410000  81.4110000
  86.7200000  55.1250000  82.2830000  33.0050000  42.5870000  93.6650000
  32.3500000  41.9160000  93.4770000  32.4950000  43.3620000  93.9000000
  62.2880000  79.8890000  58.4800000  61.5710000  79.2870000  58.2810000
  61.9170000  80.5040000  59.1130000  43.1600000  50.6910000  82.2160000
  42.2180000  50.6560000  82.3840000  43.2320000  50.7380000  81.2620000
  83.7270000  61.2280000  79.6450000  84.5740000  61.5990000  79.3980000
  83.9100000  60.3030000  79.8100000  73.7610000  36.8360000  79.1120000
  73.2170000  36.5850000  78.3650000  73.2580000  36.5590000  79.8780000
  49.1790000  75.0200000  87.4800000  50.1350000  75.0370000  87.5180000
  48.9240000  75.9420000  87.4360000  40.3560000  70.7100000  62.8550000
  39.6390000  71.2430000  63.1980000  40.1000000  70.5160000  61.9530000
  51.5230000  39.6020000  92.6630000  51.5900000  40.4480000  92.2200000
  51.2290000  39.8170000  93.5480000  39.5830000  38.9610000  94.8810000
  38.9220000  39.3110000  94.2840000  40.2400000  39.6550000  94.9440000
  39.8610000  73.2360000  59.6010000  40.3120000  74.0750000  59.5110000
  40.5650000  72.5890000  59.6490000  83.4610000  40.9000000  85.3100000
  82.5710000  41.2140000  85.1540000  83.9920000  41.6950000  85.3530000
  80.0760000  80.6330000  59.9270000  79.2420000  80.7310000  60.3860000
  79.8300000  80.4060000  59.0290000  65.3860000  87.3640000  85.5230000
  65.6920000  88.0030000  84.8800000  64.6280000  86.9510000  85.1090000
  42.0500000  59.8370000  58.4920000  41.9220000  58.8970000  58.6130000
  41.1640000  60.1990000  58.4720000  56.6330000  60.0130000  65.6500000
  56.2150000  59.5830000  64.9050000  57.5030000  59.6160000  65.6990000
  38.6990000  40.1990000  60.5060000  38.0670000  39.9230000  59.8430000
  38.8400000  39.4190000  61.0430000  40.6400000  79.8400000  62.6020000
  40.1450000  79.1190000  62.2150000  40.0270000  80.2520000  63.2120000
  33.7810000  74.3270000  61.8730000  33.3110000  73.5320000  62.1220000
  33.5350000  74.4750000  60.9600000  62.3180000  45.9140000  58.1250000
  63.2480000  45.6870000  58.1160000  61.8660000  45.0790000  57.9960000
  65.9470000  34.0580000  95.6050000  65.1250000  34.5300000  95.4780000
  65.8950000  33.7210000  96.5000000  59.1320000  37.2230000  64.7910000
  59.5580000  37.9260000  65.2800000  58.7870000  37.6500000  64.0070000
  68.5040000  48.0770000  66.4390000  67.7640000  47.6510000  66.0050000
  68.2790000  49.0070000  66.4400000  85.8210000  75.1080000  56.2880000
  85.8300000  74.1950000  56.0000000  84.9600000  75.4340000  56.0240000
  87.1410000  31.5860000  83.4460000  87.8950000  31.0000000  83.5110000
  86.3850000  31.0000000  83.3920000  36.0840000  84.7070000  70.6110000
  36.7060000  84.3890000  71.2650000  36.6320000  85.0830000  69.9220000
  82.9110000  42.8490000  77.9770000  82.2300000  42.2120000  77.7600000
  83.6980000  42.5160000  77.5450000  78.6970000  87.8160000  96.4980000
  79.1760000  86.9880000  96.4990000  77.7740000  87.5600000  96.5000000
  76.6770000  77.6660000  80.3110000  77.4150000  77.4090000  80.8620000
  76.1220000  76.8860000  80.2730000  72.1060000  88.9260000  56.6350000
  71.4020000  88.7950000  56.0000000  72.8980000  89.0000000  56.1020000
  67.7210000  48.4780000  74.0320000  66.8690000  48.8980000  74.1540000
  67.5120000  47.5700000  73.8120000  47.1370000  45.4020000  56.5660000
  47.2800000  44.6440000  56.0000000  46.7110000  46.0470000  56.0000000
  53.0140000  79.0660000  66.5530000  53.7350000  79.4920000  67.0160000
  53.2040000  78.1300000  66.6200000  59.5340000  53.3920000  96.4100000
  58.5890000  53.5440000  96.4080000  59.6240000  52.4430000  96.5000000
  51.2340000  85.0260000  94.0050000  50.3960000  84.5680000  93.9430000
  51.2910000  85.5330000  93.1950000  74.7520000  79.1080000  64.8030000
  74.7940000  78.3310000  65.3600000  73.8680000  79.4510000  64.9350000
  62.2430000  31.9120000  62.8610000  62.1350000  31.0000000  63.1310000
  61.3660000  32.2890000  62.9330000  49.6230000  47.3320000  88.2030000
  48.8470000  46.8990000  88.5580000  49.4590000  48.2660000  88.3380000
  64.2830000  63.5940000  83.6350000  64.5640000  62.8130000  83.1590000
  63.3770000  63.7310000  83.3570000  38.3440000  45.5910000  66.4080000
  37.5530000  45.4910000  65.8790000  38.1570000  45.1060000  67.2130000
  32.3340000  78.9800000  67.3790000  31.5590000  78.7480000  66.8670000
  32.9660000  78.2870000  67.1860000  76.3440000  55.5350000  58.6180000
  76.9630000  56.2650000  58.6330000  75.4820000  55.9510000  58.5950000
  72.9970000  70.1230000  94.4720000  72.2080000  69.8650000  94.9480000
  72.7700000  70.9610000  94.0670000  59.3610000  66.1940000  61.0460000
  59.8740000  65.9480000  60.2760000  59.6550000  65.5950000  61.7320000
  73.1590000  51.5860000  88.3250000  72.8120000  52.4540000  88.5280000
  72.4980000  50.9790000  88.6600000  80.8090000  75.8170000  67.5380000
  80.6330000  76.2080000  68.3930000  80.4980000  74.9150000  67.6180000
  36.2610000  60.1340000  66.7010000  36.2210000  59.7210000  65.8390000
  35.5000000  60.7150000  66.7230000  50.9120000  81.1870000  56.0160000
  51.8690000  81.1660000  56.0000000  50.6940000  82.1030000  56.1890000
  76.8460000  40.6100000  96.4610000  76.8580000  41.5660000  96.5000000
  77.7690000  40.3570000  96.4800000  47.8810000  63.4090000  88.9900000
  48.2140000  64.2560000  88.6950000  48.6440000  62.8310000  88.9710000
  35.2280000  86.1270000  56.0810000  34.3070000  86.3850000  56.1140000
  35.2070000  85.1730000  56.0000000  36.4960000  38.4130000  56.9630000
  36.6830000  38.4780000  56.0260000  36.5920000  39.3080000  57.2890000
  48.9030000  62.1300000  56.8440000  48.3610000  61.6810000  57.4920000
  48.6140000  63.0420000  56.8810000  78.7700000  44.7810000  56.8880000
  79.3780000  44.5390000  57.5860000  78.3240000  45.5620000  57.2180000
  81.8160000  44.4920000  93.0170000  80.9940000  44.4070000  92.5350000
  82.4960000  44.3290000  92.3630000  33.9060000  35.0470000  88.9690000
  34.5840000  34.6810000  89.5360000  33.6330000  35.8520000  89.4100000
  72.8170000  39.3770000  62.9870000  72.7040000  40.3140000  63.1490000
  72.0060000  39.1090000  62.5540000  61.2020000  39.7640000  71.0480000
  61.0000000  38.9540000  71.5170000  61.7670000  39.4880000  70.3260000
  80.7220000  74.5800000  64.4190000  80.0760000  74.7400000  65.1080000
  80.2470000  74.0770000  63.7570000  59.5380000  59.0060000  90.6560000
  59.4870000  59.3770000  91.5370000  58.6770000  59.1750000  90.2740000
  38.3020000  49.6110000  82.8110000  38.5000000  48.7680000  83.2160000
  39.1290000  49.8870000  82.4140000  53.3790000  77.2550000  60.4850000
  54.1980000  76.9390000  60.1040000  53.5380000  77.2560000  61.4290000
  77.9320000  62.7810000  75.2010000  77.0670000  62.7020000  74.7990000
  78.5430000  62.5310000  74.5070000  35.1000000  81.6650000  96.5000000
  35.8500000  81.1140000  96.2790000  34.3360000  81.1180000  96.3130000
  36.1390000  35.5190000  73.1460000  36.0890000  35.7780000  72.2260000
  35.3050000  35.8030000  73.5200000  57.1220000  85.3100000  92.5500000
  56.4600000  85.1520000  93.2230000  56.6750000  85.1220000  91.7250000
  59.4780000  41.8960000  95.9440000  59.9760000  41.2970000  96.5000000
  59.7290000  41.6580000  95.0510000  72.6310000  81.5380000  77.4880000
  71.8230000  81.7970000  77.0450000  72.5590000  80.5880000  77.5820000
  57.6920000  31.5370000  74.3810000  57.0370000  32.2300000  74.3020000
  58.0810000  31.6710000  75.2460000  46.6380000  48.8650000  67.3400000
  47.3620000  49.0720000  67.9310000  45.8760000  48.7840000  67.9140000
  48.6050000  73.6500000  82.7750000  48.7660000  73.3670000  83.6750000
  47.6950000  73.9460000  82.7750000  49.3690000  46.6810000  96.4370000
  49.4650000  46.2600000  95.5840000  50.1210000  47.2710000  96.5000000
  81.3350000  67.1060000  94.2040000  80.8760000  67.9440000  94.1540000
  80.8920000  66.6310000  94.9080000  34.3670000  53.1860000  62.7580000
  35.2750000  52.9510000  62.9500000  34.4280000  53.8060000  62.0310000
  77.0620000  77.5150000  61.6020000  76.1450000  77.4090000  61.3490000
  77.1610000  78.4540000  61.7600000  68.1410000  76.4430000  81.0510000
  68.7070000  75.8020000  80.6220000  67.9520000  76.0610000  81.9090000
  40.5140000  60.1380000  64.3000000  40.9560000  59.2960000  64.4120000
  40.7790000  60.4340000  63.4290000  41.1620000  47.6450000  74.2600000
  41.2320000  47.0670000  73.5000000  41.8100000  48.3310000  74.1000000
  76.0110000  40.8050000  91.3220000  76.5050000  40.5350000  90.5480000
  75.8570000  39.9920000  91.8040000  65.6980000  57.8360000  60.7630000
  65.3480000  58.7270000  60.7470000  66.4330000  57.8780000  61.3750000
  54.1610000  81.2200000  76.8040000  54.7220000  80.8710000  77.4960000
  54.4760000  82.1140000  76.6680000  80.7700000  64.9410000  86.9040000
  81.6840000  64.8920000  87.1840000  80.6830000  64.2510000  86.2470000
  72.8090000  77.9350000  66.9850000  72.3430000  77.3910000  66.3510000
  72.6850000  77.4880000  67.8220000  36.6660000  31.0510000  67.8840000
  37.4620000  31.2440000  67.3890000  35.9780000  31.0000000  67.2200000
  38.3120000  78.6140000  64.9730000  37.4180000  78.2840000  65.0610000
  38.6810000  78.1140000  64.2450000  64.7350000  57.6160000  63.7770000
  64.2580000  56.8270000  63.5190000  64.3880000  58.3030000  63.2070000
  83.1440000  46.9200000  63.2860000  83.8170000  46.7450000  62.6280000
  82.7890000  46.0570000  63.5020000  72.7130000  45.9470000  67.0670000
  73.0970000  46.2710000  67.8820000  73.2640000  46.3220000  66.3790000
  37.1690000  43.4900000  73.1480000  37.0120000  44.1830000  72.5080000
  37.7060000  43.9050000  73.8240000  59.4500000  78.8190000  68.9890000
  60.2350000  78.2870000  68.8590000  59.7280000  79.5150000  69.5840000
  73.2520000  42.9000000  86.3660000  72.7250000  43.4440000  85.7820000
  72.9470000  43.1250000  87.2450000  67.6300000  48.0250000  59.3720000
  67.1520000  48.8480000  59.4640000  68.0190000  48.0710000  58.4980000
  82.3110000  79.2820000  79.8200000  82.5890000  78.3680000  79.8590000
  81.4000000  79.2440000  79.5250000  69.3730000  73.8750000  62.4050000
  68.4770000  73.9910000  62.7200000  69.3530000  73.0480000  61.9230000
  51.8730000  75.9420000  69.7770000  52.7570000  76.2080000  69.5260000
  51.6370000  76.5360000  70.4910000  77.5810000  41.8250000  56.5220000
  76.7830000  41.9080000  56.0000000  77.4880000  42.4850000  57.2100000
  34.5210000  79.7770000  59.7980000  34.9840000  79.1170000  59.2830000
  34.6050000  79.4780000  60.7040000  50.4840000  55.4690000  85.2490000
  51.0190000  56.1530000  84.8470000  51.1190000  54.8460000  85.6040000
  34.2740000  69.5270000  58.4830000  33.9290000  70.3190000  58.8950000
  33.6500000  69.3280000  57.7850000  39.9020000  48.7700000  71.8580000
  39.3220000  48.0090000  71.8340000  40.1420000  48.9170000  70.9420000
  79.1810000  76.9230000  78.6900000  79.4350000  77.7790000  79.0350000
  79.8680000  76.7040000  78.0610000  77.8340000  52.0850000  82.4020000
  78.4070000  52.6570000  82.9120000  77.7220000  51.3080000  82.9500000
  78.5170000  66.7410000  59.2000000  79.2610000  66.1450000  59.2840000
  78.8290000  67.5680000  59.5700000  72.7350000  51.7260000  61.1930000
  72.5860000  50.7820000  61.2380000  71.8720000  52.1130000  61.3430000
  32.2520000  64.8600000  64.3660000  32.9060000  64.4010000  63.8390000
  31.6520000  64.1720000  64.6560000  63.6490000  88.1670000  91.2990000
  64.1080000  89.0000000  91.4020000  64.3460000  87.5140000  91.2360000
  39.3700000  86.4270000  58.4050000  39.9820000  85.6910000  58.3840000
  38.5080000  86.0200000  58.4990000  85.2230000  33.9170000  62.1090000
  85.9180000  34.1800000  62.7120000  85.2780000  34.5450000  61.3900000
  66.3990000  72.0580000  88.7480000  65.7020000  71.5880000  88.2920000
  65.9720000  72.4300000  89.5210000  63.9620000  53.9150000  74.3950000
  63.3300000  53.2020000  74.4890000  63.4240000  54.7020000  74.3110000
  69.6890000  31.2180000  84.9900000  68.7880000  31.0000000  84.7530000
  69.7520000  31.0000000  85.9200000  74.4120000  37.9430000  75.4090000
  74.2920000  37.8580000  76.3550000  75.2520000  37.5180000  75.2350000
  48.4670000  46.1790000  82.4100000  48.6440000  46.7450000  83.1600000
  48.3310000  45.3110000  82.7900000  83.7650000  67.8760000  65.1530000
  83.9000000  67.0780000  65.6640000  84.5610000  68.3890000  65.2960000
  54.2470000  31.5530000  91.4650000  53.4770000  31.0000000  91.5930000
  54.8630000  31.0000000  90.9830000  54.3170000  57.4370000  84.5350000
  54.3110000  57.3740000  83.5800000  53.5920000  56.8800000  84.8180000
  66.1220000  88.3860000  93.9150000  66.3800000  89.0000000  93.2280000
  65.1950000  88.5720000  94.0670000  68.0050000  66.2060000  58.5350000
  67.9660000  66.3950000  59.4730000  67.3620000  65.5090000  58.4030000
  40.2000000  46.3190000  81.9030000  40.4850000  47.1720000  82.2310000
  40.7160000  46.1830000  81.1080000  44.4100000  73.6730000  90.8050000
  44.7150000  73.0070000  91.4200000  45.1200000  74.3150000  90.7750000
  46.5210000  77.0800000  61.3810000  46.5600000  76.1600000  61.1190000
  46.8980000  77.5560000  60.6400000  31.1140000  48.8390000  63.8560000
  31.1970000  48.4940000  64.7450000  31.0000000  49.7830000  63.9750000
  50.3480000  47.3510000  90.8350000  51.1240000  47.4840000  90.2910000
  50.0530000  48.2360000  91.0530000  84.1470000  78.6520000  62.5670000
  83.4480000  78.0440000  62.3270000  83.7650000  79.1950000  63.2570000
  47.8180000  33.9950000  62.2940000  48.3750000  34.7680000  62.2060000
  48.4300000  33.2590000  62.3160000  49.2560000  74.9990000  70.2920000
  48.9510000  74.9790000  71.1990000  48.6340000  74.4480000  69.8170000
  72.4750000  74.9050000  64.2350000  72.7320000  75.8000000  64.4590000
  72.6340000  74.4020000  65.0340000  74.8630000  50.1660000  86.6320000
  74.5630000  49.3330000  86.2700000  74.9480000  50.0030000  87.5720000
  34.6610000  83.5190000  73.1460000  33.9940000  83.7310000  73.7990000
  34.1770000  83.0910000  72.4400000  36.9930000  81.0780000  73.8170000
  37.8960000  81.3960000  73.7940000  36.5740000  81.4920000  73.0630000
  46.6460000  32.9790000  65.1940000  46.1140000  32.9380000  65.9890000
  47.4280000  33.4680000  65.4540000  80.6570000  31.2860000  69.0340000
  79.7460000  31.0740000  68.8320000  81.1460000  31.0000000  68.2620000
  72.7480000  45.3600000  56.0000000  73.2940000  45.9480000  56.5220000
  72.8710000  44.4990000  56.4020000  49.2510000  34.3020000  59.1560000
  48.9470000  34.1840000  58.2570000  48.9150000  33.5380000  59.6260000
  49.3710000  37.3240000  89.0600000  50.2900000  37.4730000  88.8390000
  48.8990000  38.0220000  88.6050000  65.0230000  60.0650000  76.8480000
  64.8460000  59.1690000  76.5640000  65.9390000  60.0510000  77.1290000
  52.3950000  57.0300000  78.6420000  52.5420000  57.8920000  78.2550000
  52.9350000  56.4360000  78.1200000  69.4710000  67.1570000  72.1310000
  69.6670000  66.6030000  71.3760000  69.7650000  68.0310000  71.8710000
  66.7320000  69.4430000  62.4880000  66.5750000  70.3740000  62.6450000
  67.6860000  69.3600000  62.4720000  60.1810000  45.0860000  80.9510000
  60.8740000  44.5330000  81.3110000  59.3920000  44.8200000  81.4220000
  52.2770000  84.6960000  79.9190000  51.8830000  84.0100000  79.3810000
  51.7140000  84.7470000  80.6920000  83.5910000  66.1730000  90.2010000
  83.8890000  65.3110000  90.4920000  83.9390000  66.7800000  90.8550000
  52.6320000  54.5730000  79.7590000  52.2310000  54.9340000  80.5490000
  51.8960000  54.4170000  79.1660000  31.0000000  73.4550000  86.2500000
  31.1380000  73.9700000  87.0450000  31.5090000  72.6560000  86.3900000
  61.6800000  53.8160000  89.3800000  62.0000000  53.2980000  88.6410000
  61.4410000  54.6600000  88.9950000  81.2150000  67.3730000  86.5310000
  81.4580000  68.1330000  86.0030000  80.2580000  67.3550000  86.4990000
  56.6020000  42.9170000  85.1360000  56.8430000  43.8230000  84.9470000
  56.7510000  42.8200000  86.0780000  73.5910000  79.9390000  70.4080000
  73.5020000  80.7920000  69.9840000  72.8380000  79.4360000  70.0960000
  60.0980000  60.1800000  61.8300000  59.3910000  60.8150000  61.9450000
  59.6790000  59.4270000  61.4120000  72.9150000  31.4920000  85.3200000
  73.1690000  31.0000000  86.1010000  72.1790000  31.0000000  84.9550000
  72.9770000  67.4150000  92.5900000  72.8500000  66.8800000  91.8060000
  72.5290000  68.2380000  92.3930000  88.4040000  69.9520000  74.3950000
  88.9420000  70.5230000  74.9430000  89.0000000  69.2580000  74.1130000
  52.0900000  41.7480000  73.3490000  52.4250000  42.3590000  74.0050000
  51.3510000  42.2070000  72.9480000  71.9700000  55.8530000  69.7850000
  72.3410000  55.1030000  70.2480000  71.3650000  55.4670000  69.1500000
  86.1040000  80.9150000  95.5470000  86.1770000  81.6270000  94.9120000
  86.5150000  81.2590000  96.3410000  81.3650000  33.5390000  95.1440000
  80.4750000  33.4440000  95.4820000  81.5330000  32.7200000  94.6770000
  31.0000000  44.2700000  71.7280000  31.0420000  43.3930000  72.1080000
  31.1070000  44.8610000  72.4740000  54.3030000  45.4120000  93.9480000
  55.1920000  45.1430000  94.1770000  54.3050000  46.3640000  94.0520000
  51.7980000  84.1420000  76.0680000  51.9890000  83.5810000  76.8190000
  50.8790000  83.9660000  75.8640000  86.4730000  67.0330000  79.8110000
  87.3900000  66.9570000  79.5490000  86.4690000  67.7270000  80.4710000
  54.1400000  57.1950000  90.6010000  54.3620000  56.2840000  90.7930000
  53.5590000  57.4560000  91.3160000  35.9970000  43.2480000  94.2700000
  36.6360000  43.5550000  94.9130000  36.0990000  42.2960000  94.2660000
  51.6230000  36.9690000  94.0370000  52.4950000  36.5790000  93.9880000
  51.0240000  36.2220000  94.0220000  62.9110000  39.7720000  87.9980000
  63.6550000  39.1920000  88.1560000  62.2700000  39.2240000  87.5440000
  75.0180000  89.0000000  74.5630000  75.9060000  89.0000000  74.2070000
  74.4510000  88.9420000  73.7940000  34.6390000  43.8120000  64.7010000
  35.5950000  43.8010000  64.6960000  34.3930000  43.0950000  65.2870000
  31.7910000  38.1140000  76.6670000  31.0000000  38.4140000  76.2200000
  32.3960000  38.8540000  76.6080000  79.1490000  34.9890000  72.4100000
  78.2630000  34.7250000  72.6590000  79.0960000  35.9400000  72.3090000
  34.3490000  70.9130000  76.1200000  34.4080000  69.9590000  76.0850000
  33.6070000  71.1290000  75.5550000  65.2080000  70.0470000  58.3350000
  65.4560000  70.9310000  58.6030000  64.4070000  70.1660000  57.8230000
  80.2740000  69.9660000  69.7440000  79.3710000  70.2830000  69.7460000
  80.1940000  69.0120000  69.7430000  83.0420000  79.6530000  74.6030000
  83.6280000  80.0220000  73.9420000  83.2460000  78.7170000  74.6100000
  36.1860000  43.1470000  81.9970000  35.6920000  42.3790000  81.7080000
  35.5180000  43.7560000  82.3140000  34.7570000  52.0910000  67.2050000
  33.8430000  52.3020000  67.3940000  34.7380000  51.1790000  66.9130000
  79.7610000  88.8720000  91.4010000  80.6950000  89.0000000  91.2360000
  79.6770000  88.9240000  92.3540000  33.8730000  62.2530000  71.5650000
  33.1400000  61.6390000  71.5980000  34.5490000  61.8480000  72.1090000
  63.0460000  60.6980000  82.0690000  62.7300000  60.2620000  81.2780000
  62.7090000  61.5920000  82.0020000  60.9830000  74.4910000  90.9930000
  61.6610000  75.0520000  91.3690000  60.4220000  75.0900000  90.5000000
  58.7190000  53.4280000  59.7350000  58.1790000  53.7420000  59.0090000
  58.0890000  53.1740000  60.4100000  70.9620000  73.8730000  73.9890000
  71.1290000  74.8020000  74.1430000  71.4760000  73.6620000  73.2090000
  71.1460000  65.7650000  76.1770000  72.0890000  65.6040000  76.1380000
  71.0630000  66.5860000  76.6640000  44.6270000  62.2710000  81.7190000
  43.7460000  62.6260000  81.8330000  44.4870000  61.3840000  81.3860000
  83.0450000  47.4020000  80.6020000  82.2560000  46.9220000  80.3470000
  83.7070000  47.1290000  79.9670000  78.2390000  82.3180000  72.2180000
  78.4780000  81.4400000  72.5130000  79.0740000  82.7330000  71.9990000
  52.6870000  42.6350000  87.6490000  52.9020000  43.3300000  87.0280000
  52.0830000  43.0450000  88.2690000  48.2180000  66.5880000  60.1020000
  49.0040000  67.1010000  60.2890000  47.5040000  67.2250000  60.1300000
  58.1910000  63.1140000  86.4010000  58.2620000  62.4050000  85.7620000
  57.7880000  63.8340000  85.9160000  55.2670000  46.9150000  62.9190000
  55.5500000  46.4720000  63.7180000  54.4000000  47.2630000  63.1320000
  82.8330000  33.3570000  90.3020000  83.1400000  33.1450000  89.4200000
  83.1910000  34.2280000  90.4780000  31.0000000  53.7350000  56.3830000
  31.1820000  53.8550000  57.3150000  31.1270000  54.6040000  56.0000000
  55.0700000  53.9740000  77.2720000  55.4310000  54.7320000  76.8130000
  55.6100000  53.2380000  76.9840000  66.1570000  38.7320000  94.4120000
  66.5990000  38.6890000  95.2590000  66.8180000  39.0840000  93.8140000
  47.8590000  59.1280000  72.2410000  47.3730000  59.3850000  73.0240000
  48.5960000  58.6150000  72.5730000  40.3130000  88.9830000  68.0940000
  41.2510000  88.9320000  68.2790000  39.8990000  89.0000000  68.9570000
  33.7290000  52.6470000  56.0000000  32.9390000  52.1640000  56.2380000
  33.4720000  53.5680000  56.0520000  71.5060000  62.4820000  67.9470000
  71.7760000  61.5630000  67.9460000  70.5580000  62.4540000  67.8190000
  84.8920000  71.8520000  79.9590000  85.1920000  72.4810000  79.3030000
  85.1620000  72.2310000  80.7960000  51.0540000  44.9880000  86.3770000
  50.4190000  44.9780000  87.0930000  50.8370000  44.2160000  85.8530000
  59.3750000  78.3460000  66.5030000  59.2570000  77.4130000  66.6790000
  60.3180000  78.4470000  66.3660000  71.2020000  85.5280000  75.4750000
  70.3570000  85.2600000  75.1130000  71.0060000  86.3190000  75.9790000
  31.0710000  84.5680000  80.4800000  31.0000000  85.2660000  79.8290000
  31.0030000  85.0190000  81.3220000  54.5840000  63.7030000  93.2490000
  54.5030000  62.9750000  93.8650000  55.2730000  63.4290000  92.6430000
  48.3270000  55.4630000  96.4890000  47.3720000  55.5210000  96.4470000
  48.5090000  54.5230000  96.5000000  88.0590000  37.3030000  86.3280000
  89.0000000  37.4170000  86.1970000  87.7770000  38.1090000  86.7620000
  50.7530000  31.9360000  67.5610000  51.6520000  32.2210000  67.4010000
  50.7580000  31.0000000  67.3620000  60.0990000  50.7900000  85.7360000
  60.7230000  51.4740000  85.9790000  59.3490000  50.9330000  86.3140000
  65.9890000  49.6010000  67.2720000  65.8820000  48.6690000  67.4650000
  66.3400000  49.9750000  68.0800000  55.4000000  68.3380000  61.1340000
  56.3160000  68.5040000  60.9140000  55.4120000  67.5010000  61.5970000
  55.8460000  81.4140000  90.2280000  56.0710000  80.5140000  89.9900000
  54.9000000  81.3950000  90.3710000  62.6720000  85.0700000  56.0010000
  63.0820000  85.9340000  56.0040000  63.4070000  84.4560000  56.0000000
  65.6420000  46.8760000  82.3010000  65.0500000  46.1870000  82.6010000
  65.2360000  47.6890000  82.6020000  52.7170000  68.7720000  91.9160000
  53.6050000  68.5210000  91.6630000  52.7440000  69.7270000  91.9720000
  53.2340000  35.8440000  56.1060000  53.7930000  36.2640000  56.7600000
  52.4960000  36.4440000  56.0000000  69.7860000  80.2260000  77.7620000
  69.9020000  79.6340000  78.5050000  70.0650000  79.7150000  77.0020000
  68.1460000  81.5660000  64.2300000  68.4490000  82.4410000  64.4730000
  67.4430000  81.7220000  63.6000000  39.7110000  69.5060000  90.3390000
  40.3540000  69.0000000  89.8420000  40.2220000  69.9330000  91.0270000
  54.0150000  81.0140000  88.0640000  53.2020000  81.0950000  88.5610000
  53.8110000  80.3890000  87.3680000  83.1370000  36.5940000  80.7120000
  82.7650000  37.4580000  80.5380000  83.1680000  36.5340000  81.6670000
  55.3960000  76.7220000  57.0650000  56.1330000  76.5680000  57.6550000
  54.6490000  76.8680000  57.6460000  37.1430000  83.6070000  95.9160000
  36.4760000  83.9680000  96.4990000  37.8510000  83.3340000  96.5000000
  37.3340000  88.4070000  67.9520000  36.9390000  87.5520000  67.7830000
  36.5880000  89.0000000  68.0530000  44.8180000  45.5550000  66.5640000
  44.2650000  45.4490000  67.3370000  45.0120000  46.4920000  66.5330000
  41.5540000  87.3540000  94.2710000  42.3470000  86.8580000  94.0720000
  40.8910000  86.6870000  94.4500000  46.9960000  79.8880000  76.3480000
  47.6560000  79.2750000  76.0240000  46.5950000  80.2490000  75.5570000
  43.8440000  49.4080000  75.0750000  43.8950000  49.3710000  76.0300000
  44.4330000  48.7150000  74.7760000  62.5500000  65.0980000  81.1440000
  62.5100000  64.1470000  81.0490000  63.4810000  65.2880000  81.2680000
  59.9390000  60.5350000  64.7940000  60.3750000  60.6950000  65.6310000
  60.4870000  59.8820000  64.3580000  77.2100000  60.3980000  89.7890000
  76.6070000  61.1410000  89.7770000  77.9960000  60.7190000  89.3470000
  35.9810000  77.1470000  79.8520000  36.2420000  76.4600000  80.4650000
  36.7280000  77.7450000  79.8290000  33.1830000  37.5720000  94.3420000
  34.0820000  37.2750000  94.4820000  32.6740000  36.7660000  94.2620000
  76.0060000  54.1180000  65.9060000  75.7970000  54.9490000  66.3320000
  76.8760000  53.8920000  66.2360000  87.7160000  37.2760000  62.3830000
  88.5700000  37.3730000  61.9620000  87.2780000  38.1140000  62.2320000
  33.9150000  85.5390000  88.9370000  33.6030000  84.7050000  88.5860000
  33.2810000  85.7640000  89.6180000  53.1710000  69.3880000  56.5380000
  53.4120000  70.3060000  56.4200000  52.2150000  69.3940000  56.5880000
  88.0870000  64.1900000  84.3730000  88.0710000  63.4850000  83.7260000
  89.0000000  64.2340000  84.6580000  76.8630000  83.4030000  90.2960000
  75.9400000  83.3670000  90.5470000  77.1890000  84.2100000  90.6960000
  87.9340000  51.3000000  84.3530000  88.8840000  51.3170000  84.4640000
  87.7970000  50.8280000  83.5310000  44.3570000  42.0890000  91.1080000
  43.4820000  42.4710000  91.1820000  44.2030000  41.1950000  90.7990000
  46.3290000  31.5850000  70.7730000  46.5380000  31.0010000  71.5020000
  46.2130000  31.0000000  70.0230000  40.8560000  55.7890000  96.4570000
  39.9230000  56.0040000  96.4420000  40.8810000  54.8330000  96.5000000
  82.5750000  59.8240000  88.4380000  82.6780000  59.4110000  89.2950000
  82.6020000  59.0970000  87.8160000  74.3900000  80.5380000  84.1180000
  75.0050000  80.9960000  83.5460000  74.8920000  79.8010000  84.4690000
  31.0650000  60.0010000  77.2670000  31.0340000  60.3430000  76.3740000
  31.0000000  59.0510000  77.1630000  65.6860000  39.6220000  86.4340000
  65.9780000  39.6350000  87.3450000  65.0550000  40.3400000  86.3740000
  75.3350000  78.8020000  56.0350000  74.4190000  79.0740000  56.0000000
  75.3010000  77.8460000  56.0550000  81.7740000  53.5500000  67.6880000
  82.1450000  54.4290000  67.6070000  82.4890000  52.9650000  67.4370000
  31.4390000  43.7160000  79.7810000  31.0000000  44.1850000  80.4900000
  31.0000000  42.8660000  79.7470000  78.0140000  70.4020000  86.9280000
  77.8920000  70.3640000  87.8760000  78.1570000  71.3300000  86.7410000
  83.1800000  82.5550000  59.6280000  82.6950000  83.1090000  59.0170000
  82.7250000  81.7130000  59.6030000  51.6480000  34.0190000  61.8890000
  51.8290000  34.9460000  62.0450000  50.8340000  34.0150000  61.3860000
  89.0000000  37.2990000  82.7070000  88.6520000  37.2260000  83.5960000
  88.2400000  37.1670000  82.1400000  40.5090000  67.7080000  96.4080000
  40.8310000  66.8070000  96.4070000  39.5560000  67.6230000  96.4100000
  31.5480000  66.0000000  69.2760000  31.0000000  66.7450000  69.0300000
  32.4260000  66.3700000  69.3730000  56.6900000  51.6320000  65.5450000
  57.5770000  51.5590000  65.1920000  56.5190000  50.7780000  65.9430000
  50.3690000  32.8450000  56.0000000  50.8290000  32.9320000  56.8350000
  49.9650000  31.9770000  56.0380000  88.3900000  86.2910000  80.7200000
  88.8660000  85.4740000  80.8690000  89.0050000  86.8420000  80.2340000
  73.3290000  78.4720000  58.1680000  73.5690000  78.9840000  58.9410000
  73.9430000  77.7370000  58.1670000  85.1520000  68.5250000  60.0260000
  86.0510000  68.5970000  59.7060000  85.2080000  67.9170000  60.7630000
  31.0000000  83.1990000  72.6900000  31.0480000  83.4110000  71.7580000
  31.0250000  84.0480000  73.1320000  82.5630000  31.0490000  87.7660000
  82.5410000  31.0000000  86.8100000  83.4950000  31.0420000  87.9860000
  34.4620000  78.9700000  70.1030000  33.7770000  78.3110000  70.2150000
  33.9980000  79.7470000  69.7890000  73.1010000  67.5480000  95.2840000
  73.1520000  67.8970000  96.1740000  73.9160000  67.8330000  94.8690000
  35.7800000  55.0250000  69.0230000  35.9980000  55.6300000  68.3140000
  35.8490000  55.5530000  69.8190000  84.8950000  84.8780000  63.8910000
  85.4180000  85.0110000  64.6810000  84.0310000  84.6220000  64.2140000
  33.8240000  61.9350000  65.0930000  33.4200000  61.9630000  64.2260000
  33.4330000  62.6710000  65.5650000  65.5040000  67.9200000  84.5360000
  64.8050000  67.7650000  83.9010000  65.4590000  67.1700000  85.1300000
  67.5230000  72.8480000  96.2890000  67.1010000  73.6810000  96.5000000
  68.4580000  73.0160000  96.4110000  88.9110000  31.6210000  80.2380000
  89.0000000  31.0000000  79.5150000  88.9940000  31.0840000  81.0260000
  76.6540000  74.7360000  82.4560000  76.1520000  74.1960000  83.0660000
  76.1760000  75.5650000  82.4190000  39.9760000  51.4770000  73.9240000
  39.0230000  51.4560000  73.8480000  40.1870000  50.7400000  74.4990000
  66.2930000  73.0350000  73.3420000  65.3420000  72.9260000  73.3450000
  66.6380000  72.1420000  73.3240000  52.4070000  74.5450000  79.4700000
  51.9510000  74.3720000  78.6470000  52.6610000  73.6800000  79.7910000
  53.0400000  76.8260000  90.8490000  52.2130000  76.3810000  90.6680000
  53.1660000  76.7240000  91.7930000  88.9690000  48.5950000  71.5640000
  89.0000000  48.6940000  72.5150000  88.0400000  48.6710000  71.3450000
  85.7410000  65.5850000  92.1480000  86.3230000  66.1950000  91.6950000
  86.1990000  65.3790000  92.9640000  38.8380000  64.5210000  66.3850000
  38.3710000  65.3410000  66.5440000  39.7510000  64.7200000  66.5940000
  36.6920000  48.5910000  66.6240000  35.8020000  48.7630000  66.9310000
  36.9570000  47.7970000  67.0880000  52.7090000  79.0800000  81.2410000
  51.9760000  79.1680000  80.6320000  52.3770000  79.4330000  82.0670000
  35.4710000  48.5070000  96.4930000  34.8370000  49.2240000  96.5000000
  34.9360000  47.7130000  96.4930000  43.5290000  63.8220000  84.1940000
  44.2430000  63.1860000  84.2240000  42.7330000  63.2900000  84.2020000
  50.5220000  74.0400000  67.5910000  50.2090000  74.0240000  66.6870000
  51.3820000  73.6200000  67.5550000  88.0760000  44.7000000  60.8170000
  89.0000000  44.8920000  60.6600000  87.6190000  45.5060000  60.5750000
  49.4460000  80.8000000  58.0040000  48.6230000  81.1430000  58.3520000
  50.0660000  80.8800000  58.7290000  79.8070000  63.8700000  62.2760000
  80.6480000  63.5500000  62.6020000  79.9710000  64.0840000  61.3570000
  74.1730000  34.0590000  68.5070000  74.0190000  33.2680000  69.0240000
  74.8420000  34.5390000  68.9960000  81.9220000  76.6160000  73.3710000
  82.8700000  76.5280000  73.2670000  81.5560000  76.2110000  72.5840000
  44.7300000  40.4430000  93.7160000  45.3900000  41.1220000  93.8540000
  44.9200000  39.7840000  94.3840000  43.6430000  58.3430000  60.3410000
  43.1800000  57.5080000  60.2680000  44.2720000  58.3320000  59.6190000
  72.7210000  59.7020000  85.9770000  72.5050000  58.8170000  85.6850000
  72.8910000  59.6110000  86.9150000  44.4530000  86.9940000  91.7190000
  44.3420000  86.0570000  91.8800000  45.2750000  87.0570000  91.2320000
  88.4140000  88.3530000  63.9270000  89.0000000  89.0000000  63.5350000
  89.0000000  87.7080000  64.3240000  64.8400000  75.7080000  81.9630000
  63.9900000  76.1460000  81.9680000  65.4780000  76.4220000  81.9570000
  86.7490000  80.3530000  92.8370000  86.1480000  80.0980000  92.1380000
  87.5610000  79.8880000  92.6380000  61.7840000  64.7080000  70.4720000
  61.8820000  65.0580000  71.3580000  61.6440000  63.7700000  70.5980000
  62.4790000  72.8070000  92.1040000  63.2390000  73.3530000  92.3030000
  62.1130000  72.5820000  92.9590000  88.1450000  85.5320000  76.8180000
  87.5310000  86.2420000  77.0060000  88.9990000  85.9620000  76.7700000
  64.6770000  34.7640000  82.2160000  65.4610000  35.3100000  82.1670000
  63.9870000  35.3600000  82.5080000  55.5050000  48.7300000  84.3810000
  55.2640000  49.6540000  84.3250000  56.0610000  48.5800000  83.6160000
  70.0920000  76.3690000  61.8580000  69.3690000  76.9440000  62.1090000
  70.5810000  76.2300000  62.6700000  71.2190000  49.4530000  96.5000000
  70.8690000  48.5660000  96.4230000  70.4580000  50.0230000  96.3830000
  47.3120000  82.8430000  75.5730000  48.2360000  82.9080000  75.3310000
  47.2960000  83.0230000  76.5130000  63.3410000  68.4640000  70.3320000
  64.0990000  68.6820000  69.7900000  63.5800000  68.7650000  71.2100000
  82.7810000  70.8430000  78.0080000  82.7380000  71.4340000  78.7600000
  82.9830000  71.4140000  77.2660000  72.8050000  86.0650000  68.5980000
  73.5700000  85.5250000  68.4010000  72.0880000  85.6500000  68.1190000
  37.4030000  52.9580000  78.4840000  37.0300000  53.1110000  79.3510000
  38.2420000  53.4210000  78.4980000  70.2910000  50.8340000  86.2360000
  71.1930000  50.6160000  86.4720000  69.8500000  49.9870000  86.1670000
  35.3410000  50.3770000  88.1380000  34.7880000  49.5960000  88.1210000
  34.7230000  51.1090000  88.1450000  54.8290000  79.8770000  71.4250000
  54.4100000  80.3150000  72.1660000  55.7570000  80.0990000  71.5090000
  75.1430000  48.6990000  76.9720000  76.0230000  49.0510000  77.1010000
  74.6050000  49.4650000  76.7710000  89.0000000  31.1770000  56.9110000
  88.1990000  31.0000000  57.4050000  88.7640000  31.0010000  56.0000000
  37.7630000  55.2010000  65.1300000  38.4510000  55.2160000  64.4650000
  37.4390000  56.1010000  65.1610000  41.1860000  40.4960000  67.4580000
  40.6010000  40.3460000  66.7150000  42.0580000  40.2850000  67.1230000
  78.1210000  79.8650000  74.4420000  77.5910000  80.2510000  75.1390000
  78.3430000  78.9920000  74.7650000  55.9570000  55.5970000  96.0300000
  56.2320000  55.4870000  95.1200000  56.3930000  54.8860000  96.5000000
  84.0570000  50.6740000  87.6750000  83.5120000  50.1490000  87.0890000
  83.6060000  50.6390000  88.5190000  69.8160000  76.8070000  85.1470000
  70.6130000  76.3520000  84.8750000  69.1050000  76.3050000  84.7470000
  59.6230000  74.2940000  61.3400000  59.8220000  74.8830000  60.6120000
  59.4550000  73.4480000  60.9250000  57.5550000  41.8320000  73.2010000
  57.0030000  42.0610000  73.9490000  57.1020000  42.2070000  72.4450000
  58.4120000  67.1930000  66.1380000  59.2980000  67.1550000  65.7780000
  57.9720000  66.4250000  65.7730000  63.9710000  73.1280000  81.6820000
  64.3860000  73.4900000  80.8990000  64.6190000  73.2520000  82.3760000
  55.5590000  71.7970000  77.2250000  55.2900000  70.9480000  77.5760000
  54.7600000  72.1650000  76.8470000  84.9160000  51.9540000  95.5550000
  84.9090000  52.1060000  96.5000000  85.6380000  51.3400000  95.4160000
  50.7290000  61.6550000  62.8280000  51.3550000  61.2950000  63.4570000
  50.7910000  62.6030000  62.9440000  31.0000000  59.1600000  87.7140000
  31.0240000  59.5970000  86.8630000  31.2940000  58.2670000  87.5340000
  52.3690000  51.3150000  65.9610000  51.8160000  50.6520000  65.5500000
  51.7810000  51.7840000  66.5540000  84.9450000  69.4660000  68.3330000
  85.4040000  68.8350000  68.8870000  84.4280000  68.9270000  67.7340000
  79.4280000  47.9020000  96.4900000  78.9140000  48.4020000  95.8570000
  80.2830000  48.3350000  96.5000000  57.9220000  68.0450000  63.6250000
  58.4770000  67.3890000  63.2030000  57.0290000  67.7220000  63.4970000
  48.1060000  31.3940000  66.9780000  47.3420000  31.0010000  67.4000000
  48.1280000  31.0000000  66.1060000  44.5210000  77.7880000  81.0690000
  43.7660000  78.3670000  81.1790000  44.3730000  77.0790000  81.6950000
  87.4410000  56.5520000  78.7060000  86.7900000  55.8540000  78.7730000
  87.8750000  56.3960000  77.8670000  88.2390000  54.8880000  56.5810000
  89.0000000  54.7890000  56.0080000  87.5390000  55.1870000  56.0000000
  33.8530000  57.8660000  94.7290000  33.5670000  57.0710000  94.2790000
  34.6940000  58.0810000  94.3250000  67.3960000  35.6110000  90.4980000
  66.6350000  35.0360000  90.5770000  67.7840000  35.6170000  91.3740000
  47.7770000  80.2030000  60.5090000  47.7590000  80.1500000  61.4640000
  48.3920000  79.5200000  60.2420000  53.9370000  37.8660000  71.5930000
  53.4870000  37.1510000  72.0430000  54.5940000  37.4310000  71.0480000
  34.0090000  34.9670000  84.8970000  34.4360000  34.1680000  84.5880000
  34.7090000  35.4660000  85.3190000  61.1250000  61.5990000  58.6920000
  61.0590000  61.5120000  59.6420000  60.9360000  62.5210000  58.5210000
  48.4690000  56.9480000  93.6220000  47.8850000  56.8110000  94.3680000
  48.1140000  57.7190000  93.1780000  38.2140000  66.4630000  79.7440000
  37.7460000  67.2560000  80.0070000  38.9040000  66.3630000  80.4000000
  52.0690000  54.3420000  89.4850000  51.7930000  54.4550000  88.5750000
  51.5270000  53.6230000  89.8120000  54.5590000  58.2530000  72.8070000
  53.6540000  57.9630000  72.6960000  54.5260000  59.2010000  72.6740000
  67.3630000  36.6720000  85.8690000  67.1780000  36.1830000  86.6710000
  66.6380000  37.2930000  85.7940000  36.6760000  73.8600000  61.4240000
  36.0890000  74.4210000  60.9180000  37.4780000  73.8190000  60.9020000
  36.9660000  81.4610000  85.8330000  37.8580000  81.7800000  85.9680000
  36.9530000  81.1590000  84.9240000  48.7440000  57.1040000  63.0520000
  48.1700000  57.8600000  62.9250000  48.5870000  56.8340000  63.9570000
  53.2660000  68.3330000  77.2070000  52.9550000  67.8040000  76.4730000
  53.2460000  67.7380000  77.9570000  83.4060000  84.3410000  89.4600000
  83.4310000  85.2460000  89.7720000  83.8330000  84.3720000  88.6030000
  33.0470000  39.8070000  88.0540000  33.1180000  38.8570000  88.1490000
  33.4660000  39.9960000  87.2150000  66.6350000  44.7130000  65.3370000
  66.2780000  45.5570000  65.0620000  66.8680000  44.2730000  64.5180000
  36.2950000  65.9060000  90.5340000  37.2480000  65.8260000  90.4830000
  35.9840000  65.6240000  89.6740000  78.6350000  31.2440000  59.5580000
  78.7850000  31.0590000  58.6310000  77.7210000  31.0000000  59.7070000
  55.1980000  88.6860000  80.3480000  55.5810000  89.0000000  79.5290000
  55.9500000  88.4630000  80.8960000  59.6310000  37.7340000  69.8190000
  60.3150000  37.4580000  69.2100000  59.0460000  38.2790000  69.2920000
  47.0450000  40.5130000  86.1090000  47.8740000  40.5110000  85.6310000
  47.0220000  39.6650000  86.5540000  52.4270000  33.0760000  59.3560000
  52.8560000  32.8770000  58.5250000  52.7820000  32.4330000  59.9700000
  33.4980000  84.1060000  77.2270000  33.9410000  84.1020000  76.3790000
  33.4410000  85.0320000  77.4640000  83.4830000  61.1550000  57.9460000
  83.0720000  60.4360000  58.4260000  83.0020000  61.9350000  58.2230000
  48.7490000  66.2430000  87.1930000  48.9620000  67.1730000  87.2690000
  47.7920000  66.2150000  87.2010000  87.9990000  46.8940000  94.3600000
  87.6040000  46.1650000  93.8810000  88.9090000  46.9110000  94.0630000
  53.8260000  67.9040000  84.8970000  54.0360000  68.7790000  84.5710000
  54.6760000  67.5140000  85.1010000  37.3550000  82.0620000  70.6220000
  38.0820000  81.6220000  71.0620000  37.6230000  82.1090000  69.7030000
  69.0990000  83.4550000  58.5060000  69.6630000  82.7100000  58.2970000
  68.2090000  83.1190000  58.3980000  45.5460000  71.2450000  88.7810000
  46.0810000  71.4070000  88.0040000  45.5710000  72.0710000  89.2650000
  69.1190000  34.1710000  80.2380000  69.5760000  33.3600000  80.0140000
  68.6280000  33.9580000  81.0320000  88.3130000  78.4930000  83.8460000
  88.9520000  78.7550000  83.1830000  88.8360000  78.0790000  84.5330000
  47.2020000  76.7500000  96.4480000  47.6170000  75.8880000  96.4300000
  46.2640000  76.5640000  96.5000000  75.9580000  64.7170000  80.9600000
  75.9910000  64.2920000  81.8170000  75.7610000  65.6340000  81.1530000
  37.9620000  81.9410000  79.6420000  38.2510000  82.4710000  80.3840000
  38.4250000  81.1090000  79.7470000  35.6700000  77.7470000  82.5470000
  35.9000000  78.4080000  83.2000000  35.0930000  78.2050000  81.9360000
  73.5000000  41.2120000  75.9290000  73.7960000  40.3840000  75.5530000
  72.5660000  41.0800000  76.0960000  66.6770000  76.0410000  58.3500000
  67.6280000  76.1490000  58.3600000  66.5430000  75.0930000  58.3470000
  49.4480000  63.1840000  80.6560000  49.0280000  63.9760000  80.9920000
  49.5480000  63.3450000  79.7180000  78.2760000  79.3070000  63.8290000
  78.6830000  79.5650000  64.6550000  77.9690000  80.1290000  63.4450000
  69.9420000  51.0780000  79.2370000  70.3460000  50.3410000  79.6940000
  70.1670000  51.8420000  79.7690000  33.4470000  37.1380000  56.5820000
  32.7500000  36.8360000  56.0000000  34.2050000  37.2540000  56.0080000
  33.8150000  65.0340000  56.6060000  34.0140000  64.1010000  56.6790000
  34.6280000  65.4730000  56.8570000  67.2230000  51.1150000  79.0270000
  66.4010000  51.2370000  79.5010000  67.6230000  51.9850000  79.0120000
  60.0050000  46.4480000  63.9250000  59.1220000  46.3820000  64.2880000
  60.1520000  45.6040000  63.4960000  76.8240000  74.4660000  69.4240000
  76.9260000  73.6710000  68.9000000  77.6780000  74.8950000  69.3780000
  59.5260000  73.3860000  58.4000000  59.5450000  74.2490000  57.9860000
  60.4360000  73.0890000  58.3800000  40.9030000  84.9280000  69.7760000
  39.9810000  84.8290000  69.5400000  41.1400000  85.7990000  69.4550000
  43.2800000  34.9420000  58.7690000  43.8860000  34.2370000  58.5410000
  43.8010000  35.5420000  59.3030000  31.0000000  57.6420000  68.0470000
  31.1600000  56.8760000  68.5970000  31.8270000  58.1250000  68.0630000
  69.5910000  62.0790000  58.7100000  69.5170000  61.1590000  58.4560000
  68.6850000  62.3740000  58.8070000  33.6780000  63.4870000  73.7850000
  33.6530000  63.9750000  74.6080000  32.9890000  63.8810000  73.2500000
  33.1940000  48.1330000  59.9840000  33.8100000  48.6640000  59.4790000
  32.6630000  48.7710000  60.4620000  42.5710000  85.7570000  61.4020000
  42.1990000  85.2060000  60.7120000  43.3120000  86.1960000  60.9850000
  77.7850000  73.0490000  76.5880000  77.9060000  72.4750000  75.8320000
  78.2810000  73.8390000  76.3710000  33.8820000  31.0000000  61.0370000
  33.1830000  31.5520000  61.3870000  34.5990000  31.6080000  60.8550000
  69.8660000  75.4770000  64.9440000  69.0690000  75.9680000  64.7470000
  70.4140000  76.0940000  65.4300000  83.4970000  80.8110000  69.0400000
  82.5500000  80.6940000  68.9760000  83.6070000  81.7140000  69.3410000
  41.6390000  70.4010000  82.8720000  42.1210000  70.0630000  82.1180000
  41.6290000  69.6740000  83.4950000  46.6970000  58.2840000  68.8860000
  47.2530000  59.0020000  68.5860000  46.6680000  58.3840000  69.8380000
  36.7910000  85.5780000  60.9420000  36.2900000  85.7300000  61.7430000
  36.8880000  86.4470000  60.5510000  53.1630000  38.8190000  94.9650000
  53.3170000  39.7630000  94.9990000  52.5320000  38.6530000  95.6670000
  46.0220000  58.0040000  96.5000000  45.4570000  58.7760000  96.4870000
  46.8640000  58.3170000  96.1690000  82.8730000  64.9030000  74.3890000
  82.2950000  64.8120000  75.1460000  82.8930000  64.0300000  73.9960000
  36.4250000  74.7770000  71.5320000  37.1020000  75.0170000  72.1640000
  35.8270000  75.5250000  71.5260000  75.2080000  68.2540000  66.2130000
  75.5620000  67.7660000  66.9570000  75.1250000  67.6030000  65.5160000
  84.2720000  67.9340000  93.9800000  85.0350000  67.3560000  93.9660000
  83.8090000  67.7390000  93.1650000  63.0070000  70.4070000  96.2310000
  62.4950000  70.2390000  95.4400000  62.7640000  71.2960000  96.4900000
  56.4000000  38.7060000  78.8080000  56.8990000  37.9690000  78.4570000
  55.7980000  38.3100000  79.4380000  60.7790000  81.1610000  94.9650000
  61.3460000  81.5970000  94.3290000  60.4740000  80.3730000  94.5150000
  38.8050000  69.9580000  78.5110000  38.2830000  70.4870000  77.9070000
  38.5060000  69.0600000  78.3630000  64.4150000  33.7590000  58.1810000
  65.1030000  33.2940000  58.6570000  63.6120000  33.2850000  58.3980000
  57.0270000  70.7080000  65.3620000  56.2430000  70.9750000  65.8410000
  56.8480000  69.8070000  65.0920000  42.7640000  41.9740000  88.0870000
  42.6720000  42.7820000  88.5910000  41.9600000  41.9200000  87.5700000
  62.4450000  72.0050000  63.7250000  61.7520000  71.3440000  63.7000000
  62.9450000  71.8580000  62.9220000  45.5900000  81.3330000  90.4520000
  46.1010000  80.5240000  90.4950000  44.8940000  81.1440000  89.8230000
  38.2750000  63.6050000  82.9830000  38.4170000  64.4350000  82.5290000
  37.4220000  63.3030000  82.6690000  69.3710000  58.4920000  93.0670000
  69.1400000  58.5950000  93.9900000  68.5300000  58.4720000  92.6100000
  38.7940000  65.8940000  94.0200000  39.6170000  66.3140000  94.2680000
  39.0070000  64.9620000  93.9620000  51.9600000  86.0990000  69.6380000
  52.8120000  85.7810000  69.3400000  52.0480000  86.1660000  70.5890000
  86.1570000  77.8330000  85.8090000  86.6980000  77.1420000  85.4270000
  86.1080000  77.6130000  86.7390000  60.0380000  49.5820000  56.2130000
  59.6890000  50.4690000  56.1270000  59.2990000  49.0110000  56.0000000
  34.6030000  88.0940000  77.3760000  33.7720000  87.6280000  77.2850000
  34.3510000  89.0000000  77.5570000  70.7800000  81.1020000  89.3810000
  71.4640000  81.7710000  89.3920000  69.9610000  81.5960000  89.3370000
  49.6320000  33.7200000  93.5520000  49.9400000  33.4440000  92.6890000
  50.4280000  33.7940000  94.0790000  42.5990000  75.0950000  73.3510000
  42.5660000  75.9540000  73.7700000  43.3240000  75.1590000  72.7280000
  76.1860000  61.8540000  65.1670000  75.9200000  60.9810000  65.4560000
  76.8480000  62.1260000  65.8030000  87.8280000  33.9290000  87.2290000
  88.6690000  34.3770000  87.1480000  87.1770000  34.6300000  87.1900000
  31.2260000  79.4570000  77.8730000  32.1270000  79.5850000  77.5770000
  31.0000000  78.5740000  77.5800000  86.8940000  88.2140000  75.6090000
  86.9840000  89.0000000  76.1470000  85.9490000  88.0680000  75.5550000
  76.8320000  75.9890000  77.1330000  76.9390000  75.9970000  78.0840000
  77.6330000  76.3920000  76.7980000  56.5140000  44.6400000  76.5080000
  57.0480000  44.0130000  76.0200000  57.1500000  45.2000000  76.9550000
  75.4430000  46.4530000  84.1710000  75.1640000  47.3590000  84.0430000
  76.3760000  46.5160000  84.3800000  53.3480000  63.6550000  61.1990000
  52.6730000  62.9920000  61.3460000  53.9700000  63.2360000  60.6040000
  61.8300000  74.7790000  62.9190000  62.7360000  75.0790000  62.8480000
  61.3040000  75.5490000  62.7000000  39.8990000  65.2910000  85.5580000
  39.1140000  64.7570000  85.4400000  40.5540000  64.8850000  84.9890000
  53.0540000  57.4910000  60.5400000  52.4990000  58.0600000  60.0080000
  53.8370000  58.0150000  60.7150000  69.2510000  38.4860000  91.8620000
  69.0580000  38.8250000  92.7360000  68.4570000  38.0140000  91.6070000
  34.4930000  71.1370000  66.1630000  34.4000000  71.6740000  66.9490000
  35.0230000  71.6700000  65.5690000  64.0810000  53.6970000  56.0000000
  63.8330000  52.7730000  56.0000000  63.2470000  54.1690000  56.0000000
  67.7140000  41.6980000  87.2070000  66.8920000  42.1070000  87.4770000
  67.6440000  41.6260000  86.2550000  46.6720000  65.3980000  91.6440000
  46.5610000  65.0150000  90.7740000  47.5650000  65.1630000  91.8970000
  38.4080000  88.4500000  59.8220000  37.9640000  89.0000000  59.1770000
  39.1170000  89.0000000  60.1580000  63.4350000  56.8610000  84.8850000
  63.6640000  56.3810000  85.6810000  63.8830000  56.3900000  84.1830000
  72.6370000  71.6970000  91.5820000  71.9300000  71.3930000  91.0130000
  73.2700000  70.9790000  91.5850000  36.6860000  58.1670000  69.0920000
  36.7610000  59.1180000  69.0260000  35.7930000  58.0170000  69.4030000
  69.6200000  40.2140000  72.9370000  69.6400000  39.2650000  72.8130000
  68.6880000  40.4290000  72.9870000  88.5990000  63.2310000  66.0910000
  87.7740000  63.6420000  66.3490000  88.8680000  63.7060000  65.3050000
  75.9440000  47.3310000  71.7600000  76.8220000  46.9540000  71.7080000
  75.4910000  46.7960000  72.4120000  71.6570000  81.5240000  59.7420000
  70.8210000  81.1260000  59.9850000  71.8480000  81.1700000  58.8740000
  36.3250000  74.9470000  74.9110000  35.3950000  75.1450000  75.0170000
  36.3520000  74.0040000  74.7460000  70.4360000  54.4530000  76.9850000
  71.0760000  53.9430000  77.4810000  70.7390000  55.3580000  77.0620000
  45.3900000  43.8830000  78.9590000  46.3240000  44.0640000  79.0630000
  45.2570000  43.0450000  79.4030000  61.1850000  60.8200000  89.5990000
  61.2950000  61.7000000  89.9580000  60.4610000  60.9020000  88.9770000
  60.2960000  61.1100000  96.1100000  60.2830000  60.1640000  96.2530000
  61.2130000  61.3580000  96.2300000  42.8620000  82.5600000  88.8420000
  41.9710000  82.2850000  89.0550000  42.8090000  83.5140000  88.7700000
  59.9160000  31.1620000  82.4660000  59.9300000  32.1130000  82.3640000
  59.2390000  31.0000000  83.1240000  45.5430000  64.3120000  76.6260000
  45.3060000  64.1490000  77.5390000  46.4880000  64.1600000  76.5920000
  35.4470000  84.2620000  58.3850000  35.2150000  85.1830000  58.5030000
  36.3970000  84.2670000  58.2670000  57.4420000  67.4830000  84.9730000
  57.9660000  68.2100000  84.6350000  58.0440000  66.7380000  84.9810000
  69.4900000  37.7710000  56.5750000  70.2260000  37.5620000  56.0000000
  68.7240000  37.7570000  56.0000000  58.2500000  80.2330000  61.0560000
  59.0340000  79.8620000  60.6510000  58.2100000  79.8240000  61.9210000
  33.5230000  49.3670000  71.3440000  33.7640000  50.1350000  71.8610000
  34.0200000  48.6480000  71.7360000  56.5290000  31.0580000  65.7820000
  56.2410000  31.9690000  65.8350000  57.2570000  31.0000000  66.4020000
  34.9570000  51.1960000  77.7750000  34.0640000  51.5360000  77.8130000
  35.3860000  51.7230000  77.1010000  60.4230000  51.4020000  74.0750000
  60.4120000  51.7610000  73.1880000  61.0500000  51.9500000  74.5480000
  54.7750000  64.6570000  86.9870000  55.5200000  65.2230000  86.7830000
  54.0830000  64.9480000  86.3930000  77.2220000  36.2320000  86.0140000
  76.5250000  36.0040000  85.3990000  77.0950000  35.6350000  86.7520000
  81.6750000  80.6900000  66.0570000  82.2970000  80.7600000  65.3320000
  80.9300000  81.2270000  65.7860000  35.9740000  78.1690000  71.9250000
  36.5180000  77.7230000  72.5730000  36.0850000  79.1000000  72.1200000
  37.9960000  39.7670000  67.2330000  38.3870000  38.8970000  67.3070000
  37.1740000  39.6220000  66.7650000  68.6790000  72.4020000  91.2900000
  67.7890000  72.7210000  91.4370000  68.5610000  71.5420000  90.8870000
  35.8850000  40.7990000  72.8940000  35.5770000  40.8510000  71.9890000
  35.3700000  41.4580000  73.3600000  75.1980000  61.3590000  96.4320000
  74.6690000  60.5620000  96.4420000  76.1010000  61.0470000  96.5000000
  36.0420000  80.4780000  91.3080000  36.8740000  80.0060000  91.3000000
  36.2900000  81.4030000  91.3060000  48.4840000  80.3420000  91.3760000
  48.8150000  80.2030000  90.4890000  49.2200000  80.7290000  91.8500000
  43.4760000  55.8290000  93.9980000  43.3980000  54.8770000  94.0570000
  42.7090000  56.1630000  94.4640000  33.5760000  31.0000000  86.9240000
  34.0350000  31.0000000  87.7640000  34.2690000  31.1000000  86.2710000
  72.5940000  83.2690000  74.3460000  72.8180000  84.1740000  74.1330000
  71.6800000  83.1780000  74.0760000  39.0870000  42.4140000  68.4220000
  39.5030000  42.6910000  67.6060000  39.4460000  43.0040000  69.0860000
  65.3600000  35.1200000  84.9400000  64.4030000  35.1080000  84.9620000
  65.6050000  34.2320000  84.6790000  72.2660000  73.3510000  60.8240000
  71.5030000  73.0990000  60.3050000  71.9010000  73.8170000  61.5770000
  67.6740000  43.4140000  56.0710000  68.2870000  42.6820000  56.0000000
  66.8260000  43.0010000  56.2380000  77.1840000  50.1450000  90.4870000
  76.3620000  49.9490000  90.0380000  77.2060000  51.1000000  90.5430000
  78.4230000  88.4790000  62.7670000  77.5540000  88.7610000  62.4810000
  78.3700000  87.5240000  62.7900000  71.5450000  60.6020000  70.2460000
  70.6940000  60.2050000  70.0650000  71.8290000  60.1970000  71.0660000
  52.6870000  54.7930000  83.5610000  53.4100000  54.6400000  82.9530000
  51.8980000  54.6780000  83.0300000  46.9750000  34.0440000  56.4230000
  46.2430000  33.5360000  56.0740000  47.7490000  33.6720000  56.0000000
  88.9580000  56.8390000  65.0410000  89.0000000  56.0060000  65.5100000
  88.7390000  56.5980000  64.1410000  50.5630000  72.9600000  85.8830000
  50.7960000  73.6620000  85.2760000  49.6170000  73.0500000  86.0040000
  68.2410000  79.5040000  86.8420000  69.0320000  79.0100000  86.6250000
  68.4540000  79.9500000  87.6620000  71.3650000  67.6500000  84.9640000
  70.7980000  67.7630000  85.7270000  72.1400000  68.1780000  85.1620000
  47.9440000  69.1090000  94.4260000  48.3460000  69.5380000  95.1810000
  48.6840000  68.8170000  93.8940000  76.3070000  77.5480000  95.9470000
  76.9740000  77.9570000  96.4980000  75.5260000  77.5140000  96.5000000
  61.1000000  39.6570000  67.2870000  62.0250000  39.8310000  67.1130000
  61.0060000  38.7120000  67.1610000  62.5270000  49.8960000  84.0340000
  62.6890000  50.5530000  84.7110000  63.3690000  49.7950000  83.5900000
  79.8240000  76.6960000  86.4110000  80.4380000  77.0900000  87.0300000
  79.1500000  77.3650000  86.2840000  88.4460000  45.0110000  68.3430000
  89.0000000  44.3430000  67.9390000  89.0000000  45.7910000  68.3810000
  61.3750000  66.9010000  79.8370000  61.6690000  67.6940000  80.2840000
  61.3580000  67.1400000  78.9100000  65.9240000  83.9530000  92.5930000
  65.8600000  83.3920000  93.3660000  65.6120000  84.8080000  92.8900000
  53.6080000  77.8620000  79.2230000  53.0630000  77.7910000  78.4400000
  54.1330000  78.6500000  79.0790000  31.5920000  57.8390000  84.7940000
  31.0170000  58.4660000  84.3550000  31.0000000  57.1640000  85.1270000
  33.7910000  73.6890000  77.5100000  34.1660000  72.8320000  77.7120000
  33.9650000  73.8130000  76.5770000  88.4260000  72.1270000  59.8340000
  89.0000000  72.8910000  59.8910000  89.0000000  71.3820000  60.0170000
  62.1810000  48.7500000  64.9000000  61.3930000  49.1820000  65.2300000
  61.9100000  47.8450000  64.7420000  75.2160000  36.9780000  68.5950000
  75.2820000  36.6330000  67.7040000  76.0430000  36.7310000  69.0090000
  49.1970000  67.3330000  81.7380000  48.3120000  67.6610000  81.5750000
  49.0850000  66.3900000  81.8590000  81.6220000  54.0540000  74.7310000
  82.2000000  54.8040000  74.8680000  80.8560000  54.4190000  74.2860000
  64.5050000  77.2630000  58.5460000  65.0750000  77.9870000  58.2880000
  63.6180000  77.5870000  58.3890000  78.5070000  83.0580000  74.9520000
  77.9910000  83.8470000  74.7870000  79.0230000  83.2670000  75.7310000
  41.7020000  86.0050000  77.7430000  41.7450000  85.9710000  78.6980000
  41.1640000  86.7750000  77.5550000  42.0400000  85.9380000  86.5010000
  42.7540000  85.3020000  86.5490000  42.4730000  86.7900000  86.5560000
  63.9220000  85.3680000  70.1050000  64.4700000  86.1450000  69.9990000
  63.0290000  85.7100000  70.1660000  41.4440000  79.4750000  87.9190000
  42.2150000  80.0410000  87.9270000  41.7900000  78.5960000  88.0810000
  79.5840000  68.7380000  88.7710000  80.1440000  69.2640000  89.3410000
  79.3750000  67.9610000  89.2910000  65.3890000  78.5710000  89.1980000
  65.5780000  78.1690000  90.0460000  64.4340000  78.6280000  89.1670000
  45.3720000  76.2810000  65.3880000  45.0700000  75.3910000  65.5710000
  46.1200000  76.1650000  64.8010000  64.9160000  79.7780000  60.4620000
  65.1710000  79.5320000  61.3500000  64.0500000  79.3880000  60.3440000
  70.6520000  79.5560000  92.4390000  69.8080000  79.1040000  92.4600000
  70.4290000  80.4840000  92.5170000  69.2860000  43.6930000  64.7730000
  69.3660000  43.5690000  63.8270000  70.1830000  43.8470000  65.0710000
  54.1880000  52.4250000  58.3180000  55.0550000  52.4000000  58.7220000
  54.1120000  53.3120000  57.9660000  81.3480000  58.0740000  57.1090000
  82.2550000  58.0820000  57.4140000  81.3920000  58.4120000  56.2140000
  47.9870000  57.2920000  74.8900000  47.4800000  56.6140000  75.3370000
  47.8540000  58.0790000  75.4190000  60.8610000  41.5270000  61.0360000
  60.7950000  40.6430000  61.3960000  61.7710000  41.6000000  60.7450000
  73.5940000  52.8560000  71.5170000  73.6540000  53.6800000  71.9990000
  73.7870000  53.0950000  70.6100000  58.5440000  75.2690000  74.5820000
  59.3970000  74.9200000  74.8390000  58.4000000  76.0100000  75.1710000
  34.7260000  34.0460000  61.8020000  34.2200000  34.8330000  62.0030000
  35.4760000  34.3650000  61.2990000  88.9960000  80.6250000  67.1470000
  88.9410000  81.4650000  66.6930000  88.0920000  80.4240000  67.3920000
  64.5370000  76.3650000  88.0910000  65.3850000  76.1730000  88.4920000
  64.1950000  75.5090000  87.8320000  31.2160000  39.5770000  85.7910000
  31.0030000  38.7920000  85.2860000  31.0000000  39.3470000  86.6950000
  38.6110000  45.9870000  89.4990000  38.6390000  46.8240000  89.0360000
  37.6960000  45.7110000  89.4400000  31.8740000  65.0520000  66.9860000
  31.5420000  64.2400000  67.3690000  31.0910000  65.5770000  66.8220000
  60.6540000  31.2520000  93.3630000  60.2200000  32.1050000  93.3620000
  61.5890000  31.4580000  93.3630000  77.0430000  31.8640000  62.5230000
  77.5920000  32.4660000  62.0200000  77.2390000  31.0000000  62.1600000
  39.5460000  89.0000000  73.0380000  39.6400000  88.2640000  72.4330000
  38.6290000  88.9700000  73.3110000  68.1080000  64.1340000  88.9450000
  68.1630000  65.0150000  89.3140000  67.7280000  64.2610000  88.0750000
  37.4170000  76.9440000  90.2800000  38.0830000  76.7290000  89.6270000
  37.0040000  77.7410000  89.9480000  49.0350000  86.1140000  69.4120000
  48.6430000  85.9590000  70.2710000  48.9030000  85.2940000  68.9360000
  80.4270000  74.7060000  70.9380000  81.1740000  74.7370000  70.3410000
  79.8610000  75.4230000  70.6510000  77.1730000  52.0950000  95.6770000
  77.9080000  52.6870000  95.8340000  77.0710000  51.6160000  96.5000000
  39.6950000  64.0280000  79.5110000  40.3220000  64.5510000  79.0110000
  40.1960000  63.2670000  79.8040000  57.8190000  73.5630000  90.8210000
  58.7310000  73.2900000  90.9110000  57.7770000  74.4110000  91.2630000
  60.4080000  80.5520000  79.8000000  60.7150000  80.9130000  78.9690000
  60.1000000  79.6720000  79.5810000  37.8110000  36.7020000  68.8570000
  37.7270000  35.7570000  68.7300000  38.7330000  36.8330000  69.0830000
  47.5580000  88.6460000  75.2330000  47.8130000  89.0000000  74.3810000
  48.2700000  88.9000000  75.8210000  75.0830000  86.9420000  94.0990000
  76.0140000  87.1240000  94.2260000  74.8920000  87.2690000  93.2200000
  62.3770000  44.8570000  83.7470000  62.9020000  44.8840000  82.9470000
  62.9680000  45.1700000  84.4320000  68.1310000  39.7830000  66.9380000
  67.8320000  39.6360000  67.8350000  68.8030000  39.1170000  66.7970000
  77.7150000  82.2510000  61.7240000  77.0690000  81.7760000  61.2020000
  77.5060000  83.1750000  61.5820000  48.2880000  34.3950000  68.2910000
  47.3990000  34.0780000  68.1310000  48.8490000  33.7970000  67.7960000
  88.5680000  88.3960000  71.2440000  89.0000000  89.0000000  71.8470000
  88.1210000  88.9630000  70.6150000  39.9110000  66.3630000  91.3140000
  39.4890000  67.0170000  91.8710000  40.2750000  65.7250000  91.9290000
  76.7530000  51.6770000  70.8760000  76.1470000  52.3150000  71.2540000
  76.2210000  50.8920000  70.7420000  36.9760000  31.0000000  94.7160000
  37.1400000  31.0530000  95.6570000  37.8480000  31.0000000  94.3200000
  70.0050000  78.6250000  59.1190000  70.7670000  78.9290000  58.6280000
  70.2700000  78.6880000  60.0370000  75.3800000  55.4760000  85.2910000
  75.7880000  56.3190000  85.0920000  74.7600000  55.3360000  84.5750000
  76.6140000  31.4900000  68.0600000  75.8850000  31.6260000  68.6650000
  77.2610000  31.0000000  68.5680000  61.3570000  57.5470000  62.9690000
  60.5740000  57.0740000  63.2510000  61.8040000  57.7780000  63.7830000
  81.3670000  78.0470000  93.9410000  80.5140000  77.9610000  94.3670000
  81.4170000  77.2940000  93.3520000  39.0840000  81.4220000  88.8200000
  39.5070000  82.2600000  88.6330000  39.2290000  81.2830000  89.7570000
  53.0630000  88.9090000  62.1510000  53.5120000  88.9980000  62.9920000
  53.7570000  89.0000000  61.4980000  62.3810000  43.1930000  72.5060000
  61.4610000  43.1290000  72.2490000  62.5280000  44.1300000  72.6370000
  81.4890000  52.1130000  88.9850000  80.5820000  51.9600000  89.2480000
  81.4220000  52.6150000  88.1720000  88.3530000  51.5660000  92.1980000
  88.0320000  52.3580000  91.7660000  88.5830000  51.8520000  93.0830000
  39.5140000  80.2950000  75.5040000  39.9770000  79.6380000  74.9850000
  40.1110000  80.4950000  76.2260000  80.6660000  56.7360000  81.6530000
  80.9010000  56.1250000  80.9550000  81.4580000  57.2560000  81.7940000
  89.0000000  54.6710000  61.3150000  88.7520000  54.1850000  62.1010000
  88.9840000  54.0190000  60.6140000  81.2790000  88.6730000  73.0950000
  82.0290000  89.0000000  72.5980000  80.5150000  89.0000000  72.6200000
  64.1440000  81.2500000  62.9650000  64.8750000  81.7060000  62.5480000
  63.3800000  81.4910000  62.4400000  59.5980000  45.6610000  87.0740000
  60.0050000  46.1820000  86.3810000  59.1250000  46.2990000  87.6080000
  41.1760000  73.9570000  79.8300000  41.9800000  74.2640000  79.4100000
  40.5790000  74.7040000  79.7790000  82.6030000  46.7670000  91.8170000
  83.4490000  46.5390000  91.4320000  82.4710000  47.6850000  91.5800000
  57.7140000  85.6320000  96.5000000  57.2130000  84.8170000  96.4830000
  57.0490000  86.3220000  96.4920000  60.3820000  48.5200000  88.0500000
  61.3040000  48.2610000  88.0430000  60.4020000  49.4770000  88.0530000
  42.2460000  80.6210000  91.4750000  41.5260000  81.2500000  91.4340000
  43.0360000  81.1610000  91.4960000  57.4590000  44.5420000  89.2420000
  57.4450000  44.5320000  88.2850000  58.3600000  44.3100000  89.4700000
  59.1230000  70.2400000  92.3260000  58.6100000  70.2260000  93.1340000
  59.3860000  71.1550000  92.2250000  68.4550000  73.8150000  93.7070000
  68.1930000  74.7050000  93.4690000  69.3390000  73.7220000  93.3510000
  77.8170000  40.4990000  68.0360000  78.5990000  40.4350000  67.4880000
  77.1140000  40.7260000  67.4270000  41.4660000  31.0000000  88.0080000
  41.4710000  31.0000000  88.9650000  41.6900000  31.8990000  87.7670000
  77.8860000  43.7540000  81.2040000  76.9360000  43.8200000  81.2950000
  78.1830000  44.6610000  81.1260000  49.5000000  53.1230000  61.7430000
  48.6880000  52.7370000  62.0720000  49.3350000  54.0670000  61.7480000
  40.7070000  82.4390000  69.6360000  40.4680000  81.8480000  70.3510000
  40.0090000  82.3260000  68.9890000  82.8870000  77.3190000  68.3450000
  82.7180000  78.2540000  68.4550000  83.8410000  77.2490000  68.3130000
  58.7650000  42.9980000  68.5900000  58.3710000  43.8590000  68.4480000
  59.6950000  43.1800000  68.7280000  59.2520000  72.2060000  64.9360000
  58.5960000  72.3020000  64.2450000  59.9630000  72.7930000  64.6750000
  70.0000000  48.6070000  71.7250000  70.3020000  49.3730000  72.2120000
  69.0660000  48.5480000  71.9250000  36.0200000  52.8540000  73.2220000
  35.9050000  53.3280000  74.0460000  36.8690000  53.1490000  72.8910000
  67.4410000  56.4080000  87.4410000  68.3960000  56.4760000  87.4410000
  67.2680000  55.4680000  87.4980000  36.2480000  47.6690000  57.2800000
  36.7590000  46.9790000  57.7020000  36.9030000  48.2640000  56.9140000
  45.8370000  82.1420000  59.6140000  46.2850000  82.2090000  60.4570000
  46.5150000  82.3380000  58.9660000  35.6990000  61.1590000  89.0610000
  36.3760000  61.0730000  89.7320000  35.9960000  60.5940000  88.3470000
  84.7610000  51.9150000  93.0510000  83.8860000  51.6220000  93.3020000
  84.6720000  52.8600000  92.9260000  66.7450000  67.1180000  61.5370000
  67.4890000  66.7700000  62.0280000  65.9770000  66.8310000  62.0300000
  68.8040000  88.4360000  93.7100000  68.6520000  89.0000000  94.4680000
  69.2610000  88.9950000  93.0820000  36.0870000  50.1140000  58.3840000
  35.4720000  50.7470000  58.0160000  36.9300000  50.5680000  58.3810000
  85.7620000  80.0750000  66.5480000  85.0490000  80.2680000  67.1570000
  85.4110000  80.3050000  65.6880000  33.8570000  85.4460000  83.5550000
  34.2580000  86.2610000  83.8580000  33.0070000  85.7120000  83.2040000
  31.0250000  73.9660000  57.2770000  31.0000000  74.6940000  57.8980000
  31.0010000  74.3840000  56.4160000  59.2720000  61.8720000  91.4170000
  59.9380000  62.2480000  91.9920000  58.6200000  62.5660000  91.3190000
  84.7100000  46.3380000  74.6290000  84.3190000  45.4980000  74.3880000
  85.6120000  46.2820000  74.3130000  72.1350000  34.1090000  88.6590000
  71.3080000  34.5270000  88.4200000  72.6000000  34.7700000  89.1720000
  42.4930000  68.2890000  92.2060000  42.1620000  67.7840000  91.4640000
  42.5140000  67.6650000  92.9310000  46.3210000  43.7940000  84.4390000
  46.2490000  44.0700000  83.5260000  46.4360000  42.8440000  84.3940000
  86.6880000  31.5880000  88.6340000  86.0390000  31.0010000  89.0210000
  87.3460000  31.0020000  88.2580000  86.4900000  84.5820000  73.3750000
  85.7530000  84.5720000  73.9860000  86.2590000  83.9320000  72.7110000
  73.4280000  85.0090000  77.0080000  74.2680000  84.6960000  76.6720000
  72.9160000  84.2130000  77.1520000  86.3160000  82.5620000  66.2700000
  85.6650000  83.0480000  66.7750000  86.8120000  83.2360000  65.8050000
  87.2650000  70.2230000  66.9280000  88.2190000  70.1670000  66.8830000
  86.9810000  70.2280000  66.0130000  38.7150000  82.8780000  83.7530000
  38.2790000  82.4150000  83.0390000  38.9440000  83.7310000  83.3820000
  82.1470000  62.2730000  93.3960000  81.6630000  61.6010000  92.9170000
  81.4720000  62.8740000  93.7140000  80.5390000  65.6790000  69.4680000
  81.3370000  65.1520000  69.5020000  80.8510000  66.5840000  69.4280000
  83.4990000  58.4980000  75.1070000  82.6140000  58.7930000  74.8930000
  83.9610000  59.2940000  75.3690000  39.6580000  64.8710000  72.3520000
  39.3360000  64.7860000  73.2490000  40.4250000  65.4390000  72.4250000
  82.1770000  46.5090000  73.1610000  82.2480000  45.5700000  72.9890000
  81.6620000  46.8490000  72.4290000  50.0560000  31.0580000  58.4250000
  50.9960000  31.0000000  58.5970000  49.6500000  31.0030000  59.2910000
  75.3340000  54.5330000  96.5000000  75.4150000  55.4560000  96.2620000
  75.4130000  54.0630000  95.6690000  61.3370000  73.7640000  71.2040000
  61.2840000  73.9550000  72.1400000  60.8810000  72.9270000  71.1040000
  75.5980000  80.5150000  96.5000000  76.5380000  80.5680000  96.3270000
  75.2440000  80.0310000  95.7540000  59.1280000  76.6700000  92.7900000
  58.3390000  76.1560000  92.9630000  59.8350000  76.0250000  92.7720000
  86.0900000  53.3640000  72.0690000  86.7910000  53.0200000  72.6210000
  85.3370000  53.4390000  72.6560000  71.3260000  49.2470000  56.0000000
  70.8470000  48.4200000  56.0430000  70.6790000  49.9120000  56.2360000
  65.5320000  46.2360000  75.1120000  66.2930000  45.7690000  75.4550000
  65.6200000  47.1250000  75.4580000  46.5950000  88.9550000  84.3550000
  45.8760000  89.0000000  84.9850000  47.2600000  88.4180000  84.7880000
  81.6740000  66.1390000  77.8570000  81.3640000  67.0260000  78.0380000
  81.7050000  65.7160000  78.7160000  75.6530000  52.7800000  78.9400000
  76.5980000  52.8350000  79.0830000  75.4330000  53.5870000  78.4750000
  50.9730000  86.2880000  87.6910000  51.8430000  86.1080000  87.3360000
  50.5590000  85.4270000  87.7600000  47.3930000  65.5860000  78.9110000
  47.7300000  64.7190000  78.6890000  47.4830000  65.6420000  79.8630000
  76.3410000  88.4100000  91.4180000  75.5990000  88.9900000  91.2530000
  77.0640000  89.0000000  91.6330000  33.8520000  57.8500000  78.1240000
  34.5380000  58.4240000  77.7830000  33.1300000  58.4410000  78.3410000
  82.3800000  41.0330000  63.8510000  81.8520000  40.3480000  64.2610000
  82.9610000  40.5620000  63.2530000  56.8330000  52.2990000  56.1720000
  56.0840000  52.8950000  56.1410000  57.5910000  52.8580000  56.0000000
  78.1910000  48.1600000  84.8810000  78.9870000  48.0110000  84.3710000
  78.4450000  48.8100000  85.5370000  68.9520000  71.2420000  69.1100000
  68.4530000  71.9480000  68.7000000  69.5180000  71.6840000  69.7430000
  40.4380000  63.5440000  58.4010000  40.3870000  63.5340000  59.3570000
  41.2950000  63.9260000  58.2100000  40.0810000  78.8320000  89.9140000
  39.2150000  78.8480000  90.3200000  40.4340000  77.9700000  90.1350000
  67.3170000  88.1170000  96.5000000  66.9000000  87.2700000  96.3440000
  66.6150000  88.7560000  96.3810000  79.0870000  52.0660000  73.1240000
  78.5760000  52.7130000  73.6090000  78.4310000  51.4960000  72.7200000
  81.5970000  42.8520000  89.9010000  80.8180000  42.3120000  89.7720000
  82.1700000  42.3200000  90.4520000  69.2720000  45.2500000  67.8370000
  70.0870000  44.7480000  67.8430000  68.5820000  44.5860000  67.8320000
  53.1400000  80.0840000  96.4190000  52.3050000  80.5450000  96.5000000
  52.8970000  79.1660000  96.3010000  47.2600000  57.1670000  88.7630000
  46.4440000  57.6520000  88.8890000  47.9160000  57.6720000  89.2450000
  31.8690000  78.4270000  87.1420000  32.3610000  78.2860000  87.9510000
  31.0000000  78.0690000  87.3240000  35.9830000  32.9710000  87.8860000
  35.1830000  33.1920000  87.4100000  36.2530000  32.1270000  87.5220000
  80.5070000  81.4560000  84.6280000  80.2720000  80.7340000  84.0460000
  81.4450000  81.3420000  84.7840000  45.3090000  52.3940000  76.2910000
  45.0040000  51.5390000  76.5940000  46.2650000  52.3340000  76.3260000
  55.9090000  71.3930000  74.4180000  55.7760000  70.4820000  74.1560000
  55.0550000  71.8060000  74.2880000  88.9600000  48.6150000  95.8970000
  88.9950000  49.3580000  96.5000000  89.0000000  47.8440000  96.4640000
  71.0050000  40.8450000  64.9120000  70.6770000  39.9470000  64.9310000
  70.2830000  41.3570000  64.5470000  53.4340000  40.1310000  74.7700000
  54.0430000  40.6230000  75.3200000  53.8800000  39.3000000  74.6030000
  66.3240000  69.6630000  73.3890000  67.2250000  69.4840000  73.1190000
  65.7980000  69.0320000  72.8970000  83.3950000  38.0600000  56.0000000
  84.2470000  38.4830000  56.1040000  82.7600000  38.7670000  56.1160000
  63.9240000  81.5550000  56.9210000  63.3410000  82.1420000  57.4030000
  63.7090000  81.7070000  56.0000000  80.5270000  80.3680000  92.9180000
  80.3730000  81.3080000  93.0080000  79.6560000  79.9930000  92.7890000
  58.4680000  59.9660000  58.6910000  59.2470000  60.0430000  58.1410000
  57.7990000  60.4750000  58.2330000  57.0540000  36.1790000  83.7050000
  56.2690000  36.2530000  84.2480000  57.6860000  35.7180000  84.2570000
  41.7430000  69.8810000  96.5000000  42.2790000  70.6740000  96.4880000
  40.8650000  70.1810000  96.2630000  33.6160000  73.1700000  85.1470000
  33.1890000  74.0270000  85.1450000  34.5490000  73.3670000  85.0560000
  60.7190000  87.0860000  56.0050000  60.1050000  87.8210000  56.0000000
  60.6340000  86.7090000  56.8810000  73.7460000  54.0850000  75.8360000
  74.5680000  54.2530000  75.3760000  73.3930000  53.3000000  75.4170000
  37.8660000  82.5910000  77.0650000  38.0170000  82.2360000  76.1890000
  37.1790000  83.2470000  76.9430000  53.6680000  34.6280000  88.2850000
  54.3030000  35.1030000  88.8200000  54.1550000  33.8760000  87.9450000
  80.0470000  85.0090000  71.6490000  79.8260000  85.0500000  72.5790000
  80.9380000  84.6590000  71.6280000  40.6810000  34.2290000  74.9640000
  40.6140000  34.3070000  75.9160000  40.9930000  33.3360000  74.8180000
  48.5620000  38.8010000  77.2320000  49.1100000  39.1950000  76.5530000
  47.8010000  38.4630000  76.7590000  85.3060000  86.0170000  91.6890000
  84.7940000  86.8260000  91.7110000  84.6830000  85.3320000  91.9340000
  67.3790000  60.8960000  96.4980000  68.2750000  60.5610000  96.4710000
  67.4790000  61.8480000  96.5000000  37.1670000  48.0080000  90.9470000
  36.5840000  48.2180000  91.6750000  36.6800000  48.2690000  90.1650000
  45.7810000  81.0300000  62.7900000  46.1690000  80.3840000  63.3790000
  45.9690000  81.8740000  63.2030000  89.0000000  39.6600000  59.6880000
  88.1130000  39.4860000  60.0020000  88.8880000  39.8800000  58.7630000
  75.5070000  86.7500000  64.2000000  75.4740000  87.4000000  64.9020000
  76.1790000  86.1280000  64.4800000  55.3870000  69.5920000  93.7710000
  54.5410000  70.0310000  93.6830000  55.2000000  68.6720000  93.5810000
  31.4490000  54.0160000  86.1280000  31.0000000  53.5270000  86.8170000
  31.0020000  54.8620000  86.1030000  76.0480000  42.9680000  59.2700000
  75.4900000  43.7300000  59.4260000  76.5860000  42.8990000  60.0600000
  70.9650000  32.6120000  96.4380000  71.0480000  31.6600000  96.5000000
  71.8680000  32.9310000  96.4130000  83.9960000  53.3710000  65.3210000
  84.5720000  53.4480000  66.0810000  84.5260000  53.6810000  64.5860000
  60.4240000  61.7390000  80.9990000  59.4920000  61.5240000  80.9610000
  60.4500000  62.6960000  80.9930000  63.3130000  45.9880000  63.6300000
  63.8800000  46.3030000  64.3340000  63.2940000  46.7070000  62.9980000
  41.2580000  69.4220000  59.1530000  40.6370000  68.7420000  58.8910000
  40.7170000  70.0950000  59.5670000  38.6550000  74.2020000  93.1120000
  38.8820000  73.3560000  92.7260000  39.0960000  74.2040000  93.9620000
  57.7070000  81.4960000  56.0000000  56.7500000  81.4660000  56.0000000
  57.9180000  82.4300000  56.0000000  68.5880000  33.9720000  69.4690000
  68.1400000  33.4140000  68.8330000  69.2890000  33.4220000  69.8190000
  71.4020000  69.1010000  82.5480000  71.8340000  69.9520000  82.6170000
  72.1110000  68.4640000  82.6410000  54.8050000  56.1380000  80.2910000
  55.0300000  55.4030000  79.7210000  54.7570000  55.7570000  81.1680000
  62.5640000  59.3690000  75.1010000  61.9350000  59.9480000  75.5320000
  62.9030000  59.8860000  74.3700000  80.0490000  51.5110000  75.6800000
  79.1500000  51.1890000  75.7460000  79.9670000  52.4640000  75.7230000
  37.3390000  53.0790000  67.5160000  37.2440000  53.0730000  68.4690000
  37.5830000  53.9810000  67.3050000  85.1570000  48.3120000  81.9090000
  84.8240000  48.9990000  81.3320000  85.2900000  48.7490000  82.7510000
  75.9720000  50.3350000  61.2770000  76.0490000  49.3830000  61.2160000
  75.0640000  50.4870000  61.5370000  32.8740000  47.4280000  67.0320000
  33.4690000  47.9680000  66.5120000  33.4400000  46.9930000  67.6700000
  79.4990000  52.7990000  80.6660000  80.3160000  53.1880000  80.9780000
  79.7590000  51.9510000  80.3050000  32.7100000  88.7400000  83.4160000
  33.0070000  88.1630000  82.7120000  33.5130000  89.0000000  83.8670000
  68.7970000  63.5530000  82.9510000  68.6700000  63.8030000  83.8660000
  68.3500000  62.7100000  82.8690000  67.9080000  35.7720000  82.9830000
  67.5500000  36.6060000  83.2890000  67.8190000  35.1840000  83.7330000
  71.3260000  53.9250000  96.3360000  71.6180000  53.6310000  95.4730000
  71.8290000  54.7230000  96.5000000  34.2210000  64.2530000  84.0560000
  33.8170000  63.6880000  83.3990000  34.9780000  63.7560000  84.3680000
  65.6120000  52.4830000  88.9000000  65.0060000  53.1540000  89.2140000
  66.4060000  52.9660000  88.6710000  39.6170000  35.6380000  66.7380000
  39.0350000  34.9310000  66.4610000  39.4290000  36.3550000  66.1330000
  87.2600000  60.7970000  91.9450000  87.6240000  59.9260000  92.0990000
  86.3200000  60.6480000  91.8340000  46.0090000  52.4280000  79.9310000
  46.1190000  52.6290000  79.0020000  45.4100000  51.6810000  79.9460000
  63.0650000  38.4350000  59.9340000  62.4840000  39.1930000  59.9910000
  63.2630000  38.3550000  59.0000000  53.9230000  58.8690000  80.1380000
  53.5610000  59.7530000  80.0840000  54.6510000  58.9440000  80.7560000
  68.4950000  87.9360000  84.9620000  68.3940000  87.3830000  84.1870000
  68.3230000  88.8230000  84.6470000  45.0480000  72.4490000  56.4200000
  44.5890000  73.2190000  56.0840000  45.9080000  72.4800000  56.0000000
  74.6520000  55.6070000  93.5430000  74.0130000  55.8160000  94.2240000
  74.4180000  56.1760000  92.8100000  50.2600000  59.4100000  74.8870000
  50.1840000  60.1680000  74.3080000  50.4650000  59.7830000  75.7450000
  61.0400000  73.3170000  88.7870000  60.1900000  73.3680000  88.3500000
  61.2010000  72.3790000  88.8910000  62.4060000  79.1130000  82.0200000
  62.5110000  78.1620000  82.0110000  61.4580000  79.2490000  82.0280000
  82.4170000  88.6500000  79.6360000  81.5290000  89.0010000  79.5740000
  82.7570000  89.0000000  80.4600000  52.4610000  33.6030000  80.0240000
  51.8260000  32.9450000  80.3050000  52.9450000  33.8240000  80.8210000
  65.8860000  73.7420000  93.4940000  65.7180000  73.5400000  92.5730000
  65.8530000  72.8930000  93.9350000  74.6550000  78.6790000  77.5620000
  74.7820000  78.0130000  78.2380000  74.9810000  78.2710000  76.7590000
  45.1420000  73.1140000  95.9200000  44.7860000  72.4400000  96.4990000
  45.3330000  73.8520000  96.4990000  51.7270000  59.0790000  94.0980000
  52.2520000  59.0110000  93.3010000  51.8480000  58.2360000  94.5370000
  34.5730000  67.0750000  91.9190000  34.1130000  66.2710000  92.1630000
  33.9250000  67.5810000  91.4270000  63.8820000  59.8360000  71.6410000
  63.2760000  59.1020000  71.5430000  63.7570000  60.3580000  70.8480000
  38.8140000  71.1140000  84.5610000  39.7050000  71.0410000  84.9020000
  38.6420000  72.0550000  84.5360000  66.9880000  45.2540000  93.5410000
  66.0790000  44.9710000  93.6340000  66.9300000  46.1890000  93.3470000
  35.6970000  74.6640000  64.9680000  35.5200000  74.4370000  65.8810000
  35.4750000  73.8720000  64.4770000  77.8390000  45.9310000  93.8350000
  76.8950000  45.7800000  93.8830000  77.9570000  46.8190000  94.1730000
  65.9570000  77.7250000  93.0560000  66.2320000  78.4090000  92.4460000
  66.3150000  76.9170000  92.6870000  41.6400000  54.3820000  63.1840000
  41.7680000  55.0590000  62.5190000  41.0530000  54.7830000  63.8250000
  43.9550000  36.2650000  75.6750000  43.0370000  36.2250000  75.9410000
  44.4350000  36.4070000  76.4920000  73.9450000  51.2920000  66.0070000
  73.1300000  51.5240000  66.4530000  74.2340000  52.1070000  65.5970000
  40.1490000  54.0180000  93.6070000  40.4500000  53.1100000  93.5850000
  40.9330000  54.5260000  93.8180000  65.6990000  70.4840000  70.7930000
  66.6520000  70.5510000  70.7330000  65.4130000  71.3600000  71.0520000
  55.8980000  84.7990000  61.1630000  56.0610000  84.3580000  61.9970000
  56.7390000  85.1950000  60.9330000  85.9920000  41.2740000  63.9780000
  85.7150000  40.3640000  63.8730000  85.2060000  41.7310000  64.2770000
  88.6340000  76.0510000  81.1650000  87.8140000  76.3490000  80.7720000
  88.9960000  76.8310000  81.5860000  77.7860000  56.1130000  68.8610000
  78.1060000  56.9720000  68.5870000  77.0760000  55.9150000  68.2500000
  33.6780000  45.8000000  59.2260000  34.0470000  45.0450000  59.6840000
  34.4350000  46.2390000  58.8370000  33.9640000  73.0490000  94.0590000
  34.9030000  73.1900000  93.9320000  33.5960000  73.9300000  94.1220000
  76.1090000  71.7940000  70.3350000  77.0350000  71.8010000  70.5760000
  75.8900000  70.8650000  70.2510000  47.6640000  31.0890000  92.2320000
  47.2540000  31.0000000  93.0920000  47.4980000  31.9990000  91.9810000
  60.2140000  85.3640000  71.3470000  60.1860000  85.3610000  70.3910000
  61.0340000  84.9200000  71.5650000  78.6150000  63.5300000  79.3180000
  78.0550000  63.8260000  78.6000000  79.0120000  62.7210000  78.9940000
  76.1150000  38.8140000  80.6370000  75.2730000  38.3610000  80.6070000
  76.0880000  39.4210000  79.8970000  61.4610000  88.2080000  68.3730000
  61.8450000  87.5330000  68.9320000  62.1990000  88.5510000  67.8690000
  34.8040000  46.4020000  70.0160000  35.1890000  47.2770000  69.9650000
  33.8670000  46.5590000  70.1350000  88.7400000  46.0600000  77.8590000
  89.0000000  46.9790000  77.9320000  88.9980000  45.8070000  76.9730000
  68.6330000  86.1770000  73.5530000  68.7830000  87.0420000  73.1740000
  67.6990000  86.1670000  73.7670000  61.8160000  58.0220000  90.3430000
  61.9620000  58.5810000  91.1060000  62.1720000  58.5220000  89.6070000
  31.0240000  70.0180000  57.5520000  31.0000000  69.6000000  56.6910000
  31.1770000  69.2980000  58.1640000  31.9280000  68.6110000  70.4120000
  31.0060000  68.6330000  70.6690000  32.3660000  68.1500000  71.1270000
  58.6120000  79.7570000  86.8730000  59.1320000  80.5460000  87.0190000
  59.1230000  79.0540000  87.2750000  82.5840000  72.6050000  88.3210000
  82.7740000  71.7280000  87.9890000  82.5660000  72.5030000  89.2730000
  71.2560000  44.8110000  91.5440000  70.4760000  44.4230000  91.1470000
  71.9020000  44.8270000  90.8370000  37.3190000  84.0910000  74.0050000
  36.6040000  84.0230000  74.6370000  38.0830000  84.3280000  74.5320000
  63.5960000  56.8400000  58.4520000  62.8140000  57.3870000  58.3890000
  64.3240000  57.4620000  58.4710000  78.1530000  37.6780000  67.5050000
  78.7360000  37.0770000  67.0420000  78.5710000  37.8090000  68.3570000
  62.5570000  63.5390000  60.3570000  63.0330000  63.4310000  59.5340000
  61.8660000  64.1700000  60.1540000  65.2270000  65.5500000  89.6530000
  64.4160000  65.4680000  89.1520000  65.6870000  64.7230000  89.5040000
  86.5520000  69.5360000  78.7480000  87.4430000  69.2480000  78.5500000
  86.6030000  70.4920000  78.7450000  78.1020000  37.5800000  96.4780000
  79.0130000  37.2870000  96.5000000  77.5900000  36.7720000  96.4570000
  85.7490000  34.8670000  92.7170000  85.6220000  34.8220000  93.6650000
  84.8630000  34.9400000  92.3600000  59.0340000  71.2730000  89.4640000
  59.0710000  70.3900000  89.8310000  58.8390000  71.1390000  88.5360000
  72.2890000  67.7490000  67.2720000  71.6630000  67.0840000  67.5580000
  73.1070000  67.2680000  67.1430000  36.0040000  55.8930000  72.9320000
  35.3880000  56.6240000  72.9760000  35.6190000  55.2920000  72.2950000
  42.2980000  67.7410000  80.6390000  43.1260000  67.6830000  81.1160000
  41.7410000  67.0760000  81.0450000  52.9750000  83.4920000  56.9320000
  52.7570000  83.5030000  56.0000000  53.5300000  82.7190000  57.0380000
  75.7600000  40.0480000  73.3860000  75.9020000  39.7340000  74.2790000
  75.2160000  40.8290000  73.4900000  54.9230000  84.4020000  75.7630000
  55.5880000  84.8570000  76.2790000  54.8200000  84.9380000  74.9770000
  67.7210000  85.3490000  76.1550000  66.8460000  85.7270000  76.0750000
  68.3010000  86.1040000  76.2570000  33.5270000  57.8470000  75.5480000
  33.8140000  58.7450000  75.3830000  33.8190000  57.3570000  74.7790000
  88.9190000  49.1160000  68.9160000  87.9790000  49.2970000  68.9250000
  89.0000000  48.2910000  68.4370000  70.6130000  55.1590000  79.6160000
  70.5950000  55.7460000  80.3720000  70.7480000  54.2890000  79.9920000
  31.6950000  43.3480000  90.7450000  31.6900000  43.2300000  89.7950000
  32.5770000  43.0890000  91.0150000  45.9520000  88.9940000  89.3840000
  46.5900000  88.9290000  88.6740000  46.4810000  88.9870000  90.1830000
  72.8880000  63.7300000  70.9370000  73.6960000  63.2260000  70.8400000
  73.1440000  64.4980000  71.4480000  51.2120000  85.2320000  96.4970000
  50.5060000  84.5870000  96.4670000  52.0140000  84.7090000  96.5000000
  37.2570000  67.5960000  72.5470000  36.5580000  67.1660000  72.0550000
  37.9280000  66.9210000  72.6510000  70.2060000  86.1870000  86.0850000
  70.5930000  86.2150000  85.2100000  70.6280000  85.4410000  86.5110000
  53.5640000  71.5780000  66.8330000  53.7470000  70.8870000  66.1980000
  52.6210000  71.5190000  66.9890000  67.4910000  88.2440000  87.7680000
  67.4190000  87.3590000  87.4110000  67.0600000  88.8000000  87.1190000
  35.5180000  38.5890000  74.5970000  36.4150000  38.9100000  74.5040000
  35.0100000  39.3650000  74.8370000  48.7390000  47.0830000  74.4400000
  49.6100000  47.2720000  74.0910000  48.7070000  46.1280000  74.5010000
  47.5870000  41.8950000  57.0210000  47.4950000  42.1560000  56.1050000
  47.8240000  42.7020000  57.4780000  66.5730000  43.1620000  80.4520000
  67.3230000  43.2860000  81.0330000  66.1730000  44.0290000  80.3880000
  55.7620000  62.2030000  58.4570000  55.9830000  62.7680000  59.1970000
  54.9190000  62.5350000  58.1450000  85.9160000  49.3120000  73.2200000
  86.2050000  49.1600000  74.1190000  86.0110000  48.4620000  72.7900000
  85.6150000  86.4640000  88.8590000  86.3920000  86.5530000  88.3060000
  84.8800000  86.6170000  88.2650000  59.7810000  65.9980000  67.9610000
  58.8870000  65.6780000  68.0710000  59.8850000  66.6610000  68.6450000
  46.8550000  58.6620000  85.9810000  46.9050000  57.7760000  86.3380000
  45.9170000  58.8470000  85.9250000  48.3200000  50.5630000  92.8940000
  48.6670000  51.2630000  93.4470000  49.0910000  50.0600000  92.6320000
  50.0930000  36.6550000  60.8150000  49.3390000  37.1310000  61.1640000
  50.8070000  37.2930000  60.8280000  69.1590000  83.7990000  67.5350000
  68.4340000  83.4390000  67.0250000  68.8510000  83.7740000  68.4420000
  31.6790000  48.2650000  82.7050000  31.2400000  48.2310000  83.5550000
  31.0000000  48.0230000  82.0750000  67.0690000  85.7630000  58.9580000
  66.4030000  86.4340000  59.1080000  66.5730000  84.9860000  58.6980000
  52.4880000  79.1500000  69.9040000  53.2850000  78.6210000  69.9120000
  52.7990000  80.0550000  69.9300000  63.4270000  59.0020000  65.8960000
  64.2430000  58.5950000  66.1860000  63.6690000  59.9050000  65.6920000
  63.6790000  69.2650000  67.3350000  63.1050000  69.9290000  66.9520000
  64.4930000  69.7330000  67.5250000  41.4430000  50.7320000  67.3880000
  41.2730000  51.1050000  68.2530000  42.3130000  50.3380000  67.4640000
  83.1400000  83.4320000  66.8140000  83.1800000  82.4840000  66.9330000
  83.0430000  83.7810000  67.7000000  88.6100000  81.9830000  89.5200000
  88.0240000  82.2350000  88.8070000  89.0000000  82.8070000  89.8130000
  35.1730000  59.6110000  81.0830000  34.9830000  59.5000000  80.1520000
  35.6120000  58.7980000  81.3370000  80.7470000  82.2040000  69.8220000
  81.2000000  82.1810000  70.6650000  80.3360000  83.0690000  69.7950000
  82.0000000  38.7640000  86.4160000  82.2770000  37.8500000  86.4860000
  81.2740000  38.8430000  87.0350000  33.7820000  75.9640000  86.6110000
  32.8300000  75.9500000  86.7070000  34.1060000  76.2360000  87.4690000
  37.9500000  45.5070000  92.2740000  37.9200000  44.7180000  92.8150000
  37.0420000  45.6470000  92.0030000  43.0690000  60.8680000  93.9990000
  42.2530000  60.3880000  94.1430000  42.7920000  61.7710000  93.8440000
  86.0530000  85.7810000  96.1230000  85.5490000  86.5030000  96.4990000
  85.6630000  84.9930000  96.5010000  61.3970000  50.4380000  81.1550000
  61.6920000  49.6980000  81.6860000  60.4780000  50.2460000  80.9650000
  34.4900000  49.2440000  81.1810000  34.7150000  49.4460000  82.0890000
  33.6090000  48.8730000  81.2300000  44.7070000  55.5140000  67.8370000
  43.8460000  55.7740000  67.5090000  44.6730000  54.5580000  67.8690000
  89.0000000  44.7110000  63.4230000  88.9690000  43.7710000  63.2490000
  88.2490000  44.8740000  63.9950000  79.3210000  76.9390000  83.6870000
  79.1090000  76.4700000  82.8800000  80.2770000  76.9060000  83.7400000
  43.7190000  31.0580000  78.6590000  44.0660000  31.3470000  77.8150000
  42.8000000  31.3260000  78.6440000  42.7750000  53.8510000  90.3090000
  43.6710000  53.7260000  90.6220000  42.2830000  54.1140000  91.0870000
  53.4330000  75.4470000  84.9010000  53.3310000  76.2940000  84.4670000
  52.8230000  74.8680000  84.4430000  64.0320000  46.9190000  80.0930000
  64.4490000  47.7780000  80.1620000  64.7610000  46.3070000  79.9890000
  50.9950000  64.8160000  68.4650000  50.9330000  64.0610000  67.8790000
  50.7380000  64.4750000  69.3220000  84.1410000  38.4540000  69.1050000
  84.7840000  38.5150000  68.4000000  83.3510000  38.8580000  68.7450000
  36.4930000  55.4850000  86.9790000  36.1470000  54.7140000  87.4300000
  35.7760000  55.7730000  86.4130000  58.5800000  54.8850000  77.5010000
  57.8510000  54.3070000  77.2790000  59.2990000  54.2920000  77.7210000
  59.0280000  61.6900000  76.7820000  59.1140000  62.5230000  77.2450000
  59.8860000  61.2740000  76.8750000  35.9400000  86.4820000  75.7930000
  36.8210000  86.8070000  75.6100000  36.0510000  85.8950000  76.5420000
  63.8080000  76.3920000  72.8410000  64.4270000  76.8860000  72.3040000
  64.3580000  75.9160000  73.4650000  53.2470000  31.8920000  94.1320000
  53.5930000  31.0000000  94.1430000  54.0020000  32.4400000  93.9170000
  55.0290000  34.8520000  92.6730000  54.5430000  35.3290000  92.0010000
  54.5470000  35.0210000  93.4830000  85.5760000  51.0410000  65.4860000
  86.0320000  51.7290000  65.0010000  85.1420000  50.5190000  64.8110000
  64.9810000  48.8300000  64.7030000  65.5850000  48.1060000  64.8660000
  64.9010000  48.8650000  63.7490000  53.1580000  67.6550000  71.0390000
  53.0020000  66.7860000  71.4080000  53.5230000  67.4850000  70.1700000
  39.2670000  60.5430000  78.8130000  40.1240000  60.8710000  79.0830000
  39.4630000  59.8260000  78.2090000  38.4880000  58.3860000  67.3730000
  39.4320000  58.2340000  67.3370000  38.1000000  57.5510000  67.1110000
  74.6050000  78.8200000  81.4690000  75.1190000  78.6270000  82.2520000
  73.9950000  79.5050000  81.7450000  38.3660000  59.1870000  89.5770000
  38.8920000  59.9870000  89.5850000  39.0090000  58.4790000  89.5240000
  85.4640000  62.3640000  56.8740000  85.7270000  62.6530000  56.0000000
  85.3420000  63.1750000  57.3680000  78.9550000  69.8210000  66.6830000
  79.6060000  70.3250000  67.1720000  79.3620000  68.9640000  66.5550000
  88.8640000  86.8930000  88.4530000  88.6370000  87.6810000  87.9610000
  89.0030000  87.2010000  89.3490000  43.0550000  54.1400000  81.6380000
  43.3130000  53.2470000  81.4090000  42.9570000  54.1240000  82.5910000
  78.6940000  64.0760000  56.0080000  78.9580000  64.9960000  56.0000000
  79.5050000  63.5950000  56.1730000  84.7980000  33.7000000  67.4270000
  84.7380000  33.4850000  68.3580000  84.1710000  33.1120000  67.0040000
  40.4790000  39.2730000  87.2120000  40.0370000  38.5230000  87.6100000
  40.3840000  39.9770000  87.8540000  54.7040000  62.4560000  73.6390000
  53.8800000  62.9250000  73.7670000  54.4470000  61.5360000  73.5630000
  66.5730000  61.6870000  70.3690000  66.2420000  60.8400000  70.6690000
  65.8890000  62.3120000  70.6130000  56.6540000  53.1690000  71.6020000
  56.7480000  52.4200000  71.0130000  55.7200000  53.3770000  71.5780000
  34.5180000  36.1060000  58.7590000  33.9860000  36.0310000  59.5510000
  35.4180000  35.9900000  59.0630000  52.0280000  44.9790000  73.8650000
  51.2700000  44.9420000  74.4480000  51.9010000  45.7800000  73.3560000
  71.1470000  45.7610000  87.8370000  72.0680000  46.0220000  87.8220000
  71.1660000  44.8080000  87.7480000  85.8930000  70.8120000  93.8800000
  85.2770000  70.5570000  93.1930000  86.3490000  70.0010000  94.1060000
  39.7040000  31.1930000  91.1510000  40.4180000  31.0080000  91.7610000
  38.9090000  31.0000000  91.6480000  46.2470000  33.7340000  59.2780000
  46.3880000  34.5950000  58.8870000  45.8330000  33.9180000  60.1220000
  84.1760000  61.6490000  84.7960000  83.4380000  61.0520000  84.6740000
  83.7910000  62.4280000  85.1980000  63.8290000  68.3950000  89.4830000
  64.0070000  69.3350000  89.4460000  64.6950000  67.9880000  89.5010000
  60.7750000  80.9940000  91.7760000  61.2310000  81.8310000  91.6980000
  61.4360000  80.3930000  92.1220000  69.0840000  31.6980000  91.3050000
  68.4440000  31.0020000  91.4550000  68.5610000  32.5000000  91.2650000
  83.4820000  89.0000000  83.5350000  82.7300000  88.8780000  82.9570000
  83.1190000  88.9310000  84.4190000  59.9800000  34.1390000  88.6960000
  59.3100000  33.4820000  88.5080000  60.7950000  33.6410000  88.7540000
  88.0900000  34.2360000  84.5210000  88.0750000  35.1380000  84.8420000
  89.0000000  34.0900000  84.2600000  56.2930000  58.0930000  68.2340000
  56.7850000  57.4080000  67.7820000  55.6520000  57.6180000  68.7630000
  57.1740000  33.4090000  83.4460000  57.4430000  32.7170000  82.8440000
  56.4200000  33.8180000  83.0210000  66.4950000  88.9720000  68.0320000
  66.5550000  88.5470000  67.1770000  65.5570000  89.0000000  68.2220000
  58.8280000  52.0500000  81.8580000  58.7340000  52.9580000  82.1460000
  57.9320000  51.7590000  81.6870000  70.5660000  85.2820000  70.7530000
  70.4550000  84.8500000  71.6000000  71.3570000  84.8870000  70.3840000
  67.8760000  80.5070000  57.5560000  68.5730000  80.4620000  58.2100000
  67.0670000  80.5080000  58.0670000  37.1530000  59.2150000  78.9420000
  36.9120000  58.3700000  78.5640000  37.5580000  58.9960000  79.7810000
  55.8170000  49.3750000  69.0130000  54.9990000  49.8670000  68.9460000
  56.4650000  49.9260000  68.5730000  45.8050000  52.8320000  91.5670000
  45.7910000  52.4000000  90.7130000  46.5080000  53.4790000  91.4960000
  67.3410000  67.7060000  94.3970000  67.3130000  66.8150000  94.0490000
  68.2720000  67.8780000  94.5390000  31.1930000  61.3940000  60.1160000
  31.6210000  62.2490000  60.1730000  31.0000000  61.1610000  61.0240000
  70.4620000  33.5440000  73.1010000  70.4400000  34.4980000  73.1770000
  69.9250000  33.3520000  72.3310000  80.7220000  52.5740000  57.8510000
  81.0070000  53.4870000  57.8760000  80.8880000  52.2960000  56.9490000
  86.1400000  81.4250000  74.4420000  86.3230000  82.2850000  74.8190000
  86.2050000  81.5590000  73.4960000  69.0590000  52.1300000  76.0140000
  69.9860000  52.1000000  75.7770000  69.0560000  52.1660000  76.9710000
  77.3670000  63.3510000  84.6560000  78.2320000  63.1800000  84.2840000
  77.0730000  62.5010000  84.9840000  49.1510000  46.1720000  79.1640000
  48.5820000  45.6300000  79.7110000  49.1020000  47.0440000  79.5560000
  49.7450000  38.8210000  56.0790000  48.8130000  39.0240000  56.1540000
  50.1720000  39.6740000  56.0000000  48.9980000  52.7350000  85.0170000
  49.3520000  53.2160000  84.2700000  48.0500000  52.8630000  84.9580000
  45.9740000  54.8350000  69.9920000  46.5150000  54.5440000  70.7260000
  46.2200000  55.7510000  69.8610000  72.6270000  84.2810000  88.7600000
  72.6370000  83.9620000  89.6620000  71.6990000  84.4000000  88.5580000
  52.0190000  74.6060000  73.1570000  51.8400000  74.1080000  72.3590000
  52.6670000  75.2590000  72.8910000  80.0090000  59.7540000  86.5470000
  79.4970000  59.5760000  87.3360000  80.4420000  58.9230000  86.3490000
  31.9270000  72.6530000  96.2620000  31.0000000  72.8460000  96.1200000
  31.9490000  71.7170000  96.4620000  37.5990000  46.1340000  63.1330000
  38.5320000  46.2480000  63.3110000  37.5080000  45.2080000  62.9090000
  62.9080000  61.5090000  87.8760000  63.1260000  62.4230000  88.0600000
  63.7550000  61.0660000  87.8250000  41.7050000  88.4560000  70.9580000
  41.9590000  87.5380000  71.0530000  42.2660000  88.9260000  71.5750000
  88.9220000  82.2550000  93.1480000  89.0020000  83.1820000  93.3740000
  88.4420000  81.8700000  93.8810000  63.4780000  51.7120000  95.8680000
  62.6280000  51.7380000  96.3080000  64.0620000  51.2910000  96.5000000
  71.3770000  60.1220000  93.9920000  71.5770000  59.2010000  94.1560000
  71.5680000  60.2470000  93.0620000  42.4240000  40.1490000  96.4960000
  42.1570000  39.2300000  96.4920000  43.3810000  40.1200000  96.5000000
  80.2110000  33.2230000  92.3470000  80.4690000  34.0130000  92.8210000
  81.0340000  32.8580000  92.0210000  54.7590000  33.5830000  74.9100000
  54.8160000  34.4960000  75.1920000  53.9650000  33.5460000  74.3760000
  88.9490000  86.8900000  61.9620000  88.9940000  86.0630000  62.4420000
  89.0000000  86.6360000  61.0410000  85.1300000  58.3310000  61.4770000
  85.9980000  58.3560000  61.0740000  85.3010000  58.1860000  62.4080000
  37.2190000  56.2990000  62.3980000  36.6180000  55.6960000  62.8350000
  36.9490000  57.1670000  62.6970000  67.7080000  41.5480000  64.9090000
  67.8460000  40.7030000  64.4820000  66.7560000  41.6310000  64.9760000
  65.8020000  76.3350000  66.5210000  66.0480000  75.5340000  66.0590000
  66.6300000  76.7990000  66.6540000  45.7330000  88.9770000  70.6660000
  45.1310000  89.0000000  71.4090000  46.5850000  88.7720000  71.0530000
  82.1400000  41.1590000  68.2440000  81.2210000  41.4230000  68.2000000
  82.6220000  41.9830000  68.3190000  31.8410000  51.2710000  58.3690000
  32.3790000  50.5860000  58.7660000  31.0000000  51.2080000  58.8230000
  68.5480000  54.3500000  85.6640000  68.6880000  53.4810000  86.0390000
  69.0510000  54.3440000  84.8490000  42.1880000  33.6060000  61.3590000
  42.1090000  33.6040000  62.3130000  43.1320000  33.5890000  61.1970000
  55.7250000  82.2020000  63.2160000  56.4170000  81.5660000  63.0380000
  55.1720000  81.7780000  63.8730000  59.1550000  49.8730000  83.4660000
  59.8410000  49.2270000  83.3000000  58.3560000  49.4680000  83.1280000
  66.2330000  31.0030000  75.3150000  66.9200000  31.6670000  75.3670000
  65.9720000  31.0000000  74.3930000  73.4820000  87.2280000  75.8380000
  73.3860000  86.6720000  75.0650000  74.3980000  87.1260000  76.0960000
  61.7860000  78.3990000  93.6910000  61.4910000  77.8910000  92.9350000
  61.4500000  77.9190000  94.4490000  51.2730000  37.3580000  64.1440000
  50.5810000  36.9460000  63.6270000  50.8310000  37.6630000  64.9370000
  46.4250000  75.0280000  71.1540000  46.5060000  75.1260000  72.1030000
  45.4910000  75.1470000  70.9800000  82.4830000  52.1280000  72.7150000
  81.6000000  52.4910000  72.6460000  83.0140000  52.6760000  72.1370000
  83.0630000  70.5930000  91.4890000  82.1410000  70.4150000  91.3020000
  83.4320000  69.7380000  91.7130000  36.4340000  62.1760000  63.6310000
  36.2280000  61.2760000  63.8810000  35.6380000  62.4950000  63.2050000
  66.4420000  57.5920000  72.1240000  66.6320000  56.9780000  71.4140000
  65.5820000  57.9520000  71.9050000  86.9120000  46.8870000  83.1390000
  86.7700000  46.4560000  83.9810000  87.5280000  46.3170000  82.6780000
  55.2020000  37.7860000  86.3070000  54.5630000  38.4180000  86.6360000
  55.1330000  37.0420000  86.9050000  88.9620000  67.4790000  89.7390000
  89.0000000  68.3750000  90.0740000  88.0500000  67.2160000  89.8600000
  68.8100000  33.8820000  88.9700000  67.8820000  33.6780000  88.8540000
  69.2680000  33.1020000  88.6580000  57.1280000  75.1840000  59.7270000
  57.1340000  75.1650000  60.6840000  57.2630000  74.2720000  59.4680000
  68.9560000  41.2000000  58.6300000  68.4760000  41.9940000  58.3960000
  68.5240000  40.8840000  59.4250000  88.0190000  40.9560000  91.3200000
  88.8920000  41.2520000  91.0640000  87.5300000  40.9110000  90.4980000
  69.8690000  70.0290000  77.2950000  68.9340000  69.8930000  77.4460000
  69.9340000  70.9370000  76.9970000  44.9900000  52.8950000  71.8230000
  44.0710000  52.6280000  71.8310000  45.4300000  52.2560000  72.3850000
  42.8420000  65.0840000  89.9100000  42.3590000  65.8820000  89.6980000
  42.7310000  64.9790000  90.8560000  60.3570000  31.1840000  87.6370000
  59.4200000  31.0000000  87.5780000  60.5810000  31.0000000  88.5500000
  68.7060000  67.4290000  78.1030000  69.5510000  67.5160000  78.5450000
  68.6940000  66.5260000  77.7840000  37.0900000  62.7060000  91.8220000
  36.5730000  63.3780000  91.3780000  37.5320000  63.1730000  92.5310000
  69.9430000  80.2440000  96.4990000  69.2980000  80.9500000  96.5000000
  70.7890000  80.6920000  96.4970000  33.5510000  86.3780000  67.9060000
  34.3000000  86.9540000  67.7550000  33.7120000  85.9950000  68.7680000
  56.8930000  52.4110000  94.9630000  56.0480000  52.8370000  95.1100000
  56.6690000  51.5270000  94.6720000  45.7470000  48.4410000  61.6820000
  46.1170000  49.2520000  62.0310000  45.1760000  48.7260000  60.9680000
  44.2770000  68.6630000  95.3810000  44.3820000  69.5370000  95.7550000
  43.3740000  68.6430000  95.0650000  63.6590000  45.2720000  70.4680000
  63.0830000  45.8770000  70.9330000  63.8860000  45.7300000  69.6590000
  41.1150000  36.4080000  83.0560000  42.0450000  36.2110000  82.9530000
  40.7370000  35.6050000  83.4140000  63.6410000  74.7700000  66.5820000
  63.6490000  74.4350000  67.4780000  63.9340000  74.0310000  66.0470000
  49.1880000  40.0970000  58.7210000  49.8360000  40.7870000  58.5800000
  49.7030000  39.2920000  58.7810000  56.4830000  62.7590000  69.3290000
  57.4140000  62.5380000  69.3250000  56.4640000  63.7160000  69.3330000
  49.7770000  41.3260000  74.9720000  49.6000000  41.7630000  75.8040000
  50.5140000  40.7440000  75.1590000  62.7250000  79.1710000  71.2600000
  61.8670000  79.1940000  70.8380000  62.6120000  78.5790000  72.0040000
  81.8740000  88.7450000  75.5230000  81.4410000  88.1950000  76.1750000
  82.5790000  88.1980000  75.1770000  86.4130000  32.7980000  75.5580000
  85.6170000  33.3240000  75.6350000  86.0980000  31.9000000  75.4580000
  35.9770000  74.0850000  79.7300000  35.9810000  73.1890000  79.3940000
  35.0500000  74.2930000  79.8480000  67.8060000  64.5140000  66.7060000
  68.5860000  63.9630000  66.6460000  68.1460000  65.4090000  66.7260000
  35.1350000  51.6520000  80.9780000  34.7690000  52.2740000  80.3480000
  35.8530000  51.2280000  80.5070000  79.6910000  79.3240000  66.9310000
  79.0550000  79.6020000  67.5900000  80.4410000  79.0110000  67.4370000
  70.9960000  63.9520000  63.2470000  71.2590000  64.8610000  63.1010000
  71.5220000  63.6680000  63.9950000  72.7820000  57.6340000  96.4720000
  71.9070000  57.2470000  96.4600000  73.3760000  56.8840000  96.5000000
  61.4740000  45.1040000  75.1020000  61.8550000  44.2340000  75.2230000
  62.1430000  45.5960000  74.6250000  40.6310000  53.2080000  82.5350000
  40.0380000  52.4700000  82.3970000  40.1380000  53.8120000  83.0900000
  42.9350000  79.2920000  96.5000000  43.6710000  78.8040000  96.1310000
  42.1820000  78.7100000  96.3890000  54.5040000  86.3920000  81.7100000
  53.8820000  86.4020000  82.4370000  53.9740000  86.5870000  80.9370000
  41.9330000  37.5400000  80.3270000  42.3750000  38.3610000  80.1120000
  42.6440000  36.9270000  80.5140000  35.0060000  69.3680000  73.5080000
  35.1950000  69.3100000  72.5720000  35.1980000  70.2780000  73.7350000
  74.3190000  81.3240000  79.3340000  74.6480000  80.4260000  79.3500000
  74.0930000  81.5130000  80.2460000  72.5740000  54.9020000  82.6060000
  72.6180000  55.7240000  83.0930000  71.6410000  54.7800000  82.4260000
  59.0150000  34.2290000  69.6980000  59.7770000  33.6670000  69.8430000
  59.3340000  35.1150000  69.8700000  39.9140000  86.5600000  67.3430000
  39.4570000  86.8210000  66.5440000  39.2770000  86.7040000  68.0430000
  79.6250000  40.4540000  70.9070000  79.3270000  41.3430000  71.1030000
  79.6260000  40.4080000  69.9500000  83.7480000  49.8400000  84.3900000
  83.8840000  50.7700000  84.2110000  82.8470000  49.7850000  84.7070000
  79.3880000  45.2750000  63.1790000  80.0740000  45.9410000  63.2090000
  79.8610000  44.4430000  63.1430000  41.9130000  70.5890000  79.4900000
  41.2650000  71.2900000  79.5460000  41.4500000  69.8680000  79.0620000
  79.4110000  71.9090000  59.2980000  78.9340000  71.2470000  59.7970000
  78.7450000  72.5550000  59.0590000  42.1190000  40.2300000  77.4620000
  41.7290000  39.8880000  76.6580000  41.4390000  40.1170000  78.1260000
  36.6700000  66.6720000  77.4660000  36.5680000  67.5410000  77.0790000
  35.9760000  66.6200000  78.1250000  64.6160000  72.6460000  77.6920000
  65.1670000  73.3240000  77.3010000  64.8850000  72.6180000  78.6100000
  46.2240000  44.3090000  91.5280000  47.0010000  44.1220000  92.0540000
  45.4880000  44.0860000  92.0990000  62.7950000  41.3500000  68.9430000
  63.0750000  41.8530000  68.1780000  61.9850000  41.7750000  69.2270000
  57.4770000  56.5410000  60.9670000  57.9380000  55.7940000  61.3470000
  58.1740000  57.1080000  60.6330000  75.9130000  31.8780000  87.6990000
  75.6930000  31.0090000  88.0350000  75.9010000  32.4440000  88.4720000
  68.2860000  73.3080000  83.5280000  68.1450000  74.2490000  83.6330000
  67.6350000  72.9020000  84.1000000  44.6030000  39.9370000  63.9110000
  45.0940000  40.7560000  63.8510000  45.1410000  39.3000000  63.4400000
  37.3550000  70.6150000  96.4910000  38.0710000  71.2500000  96.5000000
  37.7430000  69.8220000  96.1210000  37.6800000  66.7680000  61.0530000
  38.1990000  67.3960000  61.5560000  38.1930000  65.9600000  61.0760000
  47.3140000  46.1490000  85.9750000  47.8590000  45.4100000  85.7040000
  46.4980000  45.7470000  86.2750000  54.6700000  83.2140000  92.4030000
  54.4030000  83.6900000  91.6160000  55.5680000  82.9360000  92.2220000
  43.7810000  65.3290000  79.6710000  43.0930000  65.5710000  79.0510000
  43.3120000  64.9340000  80.4070000  33.4600000  49.8700000  64.4120000
  33.3400000  50.6560000  63.8790000  33.1610000  50.1250000  65.2850000
  66.4190000  82.4780000  56.5580000  66.0240000  83.1870000  56.0510000
  66.3280000  81.7050000  56.0000000  89.0000000  31.0100000  91.0550000
  88.1440000  31.0000000  90.6270000  88.8260000  31.3570000  91.9310000
  40.9470000  86.5340000  64.4890000  40.4490000  85.7170000  64.5000000
  41.5820000  86.4180000  63.7820000  52.1930000  88.1520000  85.4920000
  53.1190000  88.3260000  85.3260000  51.7640000  89.0000000  85.3750000
  50.7630000  67.5400000  88.9650000  51.2530000  67.6140000  89.7830000
  50.8390000  68.4040000  88.5600000  73.4940000  61.7750000  65.1940000
  73.6400000  62.4580000  64.5410000  72.6870000  62.0360000  65.6380000
  52.2880000  58.1500000  56.8430000  52.1130000  58.9370000  57.3590000
  51.8650000  58.3180000  56.0000000  44.8560000  65.6830000  88.3840000
  45.7420000  65.9640000  88.6100000  44.3540000  66.4960000  88.3230000
  63.5530000  50.7160000  78.7580000  63.4830000  49.8940000  78.2720000
  63.4310000  50.4650000  79.6740000  46.6780000  67.5230000  96.2950000
  45.8550000  67.0790000  96.5000000  46.5080000  68.4450000  96.4880000
  85.0860000  87.2820000  84.3870000  84.9030000  86.4870000  83.8860000
  85.6790000  87.7860000  83.8290000  70.1560000  89.0000000  75.8650000
  70.2050000  88.5690000  76.7180000  69.3150000  88.7200000  75.5030000
  81.1770000  88.9290000  86.5690000  81.5740000  89.0000000  87.4370000
  80.2360000  88.9980000  86.7290000  38.3070000  84.9820000  56.0130000
  39.2080000  84.6610000  56.0050000  37.7700000  84.1890000  56.0000000
  45.4360000  65.2280000  82.8840000  46.1080000  65.2720000  82.2050000
  44.6340000  65.5160000  82.4480000  88.7870000  58.6370000  76.2280000
  89.0000000  58.5120000  77.1530000  88.9980000  57.7990000  75.8170000
  66.3680000  78.0870000  80.3160000  65.7580000  78.7240000  80.6880000
  67.1650000  78.5900000  80.1450000  76.0550000  69.4110000  95.9140000
  75.8010000  69.6930000  95.0360000  75.4840000  69.9090000  96.5000000
  43.2700000  40.2270000  85.1450000  42.4760000  40.7550000  85.0630000
  43.8200000  40.7140000  85.7600000  42.0110000  78.3760000  76.0880000
  41.8290000  77.5060000  75.7340000  42.8580000  78.2840000  76.5260000
  49.8620000  36.1730000  75.5630000  48.9060000  36.2070000  75.5740000
  50.0690000  35.2380000  75.5560000  64.7500000  73.4600000  59.0900000
  65.4240000  73.3610000  59.7610000  64.3550000  74.3130000  59.2710000
  60.3970000  86.1850000  59.4900000  61.1010000  85.8360000  60.0380000
  60.4520000  87.1340000  59.6060000  55.0920000  43.4890000  89.1050000
  55.0640000  42.7190000  88.5380000  55.0560000  43.1350000  89.9940000
  39.6650000  62.9820000  56.0510000  39.5340000  63.9290000  56.0360000
  40.6150000  62.8700000  56.0000000  53.3930000  73.3940000  95.6730000
  53.6500000  72.9760000  96.4950000  53.3110000  72.6690000  95.0520000
  75.8620000  34.8940000  88.9660000  75.1910000  35.4710000  88.6000000
  76.3340000  35.4430000  89.5920000  47.1810000  74.3020000  89.0380000
  47.2660000  73.6570000  88.3370000  46.4730000  74.8780000  88.7490000
  31.9640000  81.7590000  78.8010000  32.3260000  82.6420000  78.8800000
  31.0750000  81.8940000  78.4710000  52.9360000  67.0510000  87.5760000
  53.2570000  66.4840000  88.2770000  53.6150000  67.7190000  87.4780000
  42.8540000  82.4180000  67.3180000  43.0360000  83.1280000  67.9340000
  41.9050000  82.3020000  67.3590000  88.2290000  46.1770000  70.9940000
  88.2000000  46.2480000  71.9480000  88.5050000  45.2750000  70.8280000
  46.5490000  79.8450000  95.8210000  47.2330000  79.3100000  95.4200000
  46.1730000  79.2830000  96.5000000  53.8640000  81.6870000  80.9650000
  52.9690000  82.0120000  81.0530000  54.1470000  81.5140000  81.8630000
  60.7700000  88.3850000  74.6300000  60.1330000  89.0000000  74.2670000
  60.8990000  88.6790000  75.5320000  43.6990000  31.0620000  67.0280000
  43.5700000  31.9030000  66.5900000  44.6460000  31.0000000  67.1550000
  71.9260000  75.5290000  70.9750000  71.4450000  76.1660000  70.4470000
  71.3820000  74.7410000  70.9560000  36.8860000  56.9460000  58.9810000
  36.4630000  57.7990000  58.8890000  37.3040000  56.9770000  59.8420000
  38.6210000  73.2870000  56.1360000  38.7940000  74.2190000  56.0000000
  37.6730000  73.2350000  56.2570000  88.9640000  61.2880000  73.3920000
  88.1420000  61.3780000  72.9110000  89.0000000  60.3620000  73.6340000
  77.0830000  33.8490000  64.0440000  76.5280000  33.2480000  64.5400000
  77.6930000  34.2030000  64.6920000  81.0220000  42.9220000  96.2330000
  81.4550000  42.1120000  96.5000000  81.7360000  43.5490000  96.1140000
  40.0670000  51.4590000  96.3320000  40.3490000  51.1830000  95.4600000
  40.5610000  52.2630000  96.5000000  31.0400000  51.3970000  74.6850000
  31.0000000  51.2390000  73.7420000  31.0030000  50.5230000  75.0760000
  56.6580000  52.6890000  83.7240000  55.7710000  53.0240000  83.5910000
  56.5440000  51.7450000  83.8350000  31.0330000  40.1330000  91.0110000
  31.0000000  40.8080000  91.6880000  31.5840000  40.5080000  90.3240000
  82.3240000  34.1780000  62.2840000  82.7790000  33.4840000  61.8070000
  82.9370000  34.9130000  62.2820000  31.0040000  79.6290000  75.3140000
  31.0000000  80.2090000  74.5520000  31.0540000  78.7480000  74.9430000
  88.4570000  64.7660000  87.5780000  88.6600000  65.3610000  88.3000000
  88.2050000  65.3420000  86.8560000  44.0340000  48.2220000  86.0260000
  44.4350000  48.5640000  85.2280000  44.5730000  47.4660000  86.2600000
  79.1660000  66.9250000  62.5740000  79.1670000  67.7350000  62.0650000
  79.9210000  66.4350000  62.2480000  40.4540000  71.5370000  71.7540000
  39.9570000  71.9620000  71.0550000  40.4720000  72.1820000  72.4620000
  31.3450000  73.1050000  71.9580000  31.0000000  72.5090000  71.2940000
  31.0270000  73.9690000  71.6930000  56.7500000  36.4050000  68.2780000
  57.6490000  36.1020000  68.1540000  56.8410000  37.2590000  68.7030000
  43.2600000  56.6240000  86.2910000  43.2440000  57.5040000  85.9150000
  44.1140000  56.5620000  86.7200000  86.0690000  44.3110000  62.4040000
  85.6930000  44.5460000  63.2520000  86.5750000  43.5160000  62.5780000
  78.4200000  86.7720000  83.1430000  79.1670000  86.1980000  82.9730000
  78.3640000  87.3290000  82.3660000  88.4140000  83.9910000  58.4460000
  89.0000000  83.2350000  58.4470000  89.0000000  84.7490000  58.4310000
  87.1410000  75.0630000  83.2610000  86.2030000  75.2450000  83.1960000
  87.5410000  75.9200000  83.4150000  81.9950000  70.5650000  83.8350000
  82.8080000  71.0600000  83.9430000  81.3530000  71.2180000  83.5550000
  48.0250000  86.2090000  58.7700000  47.3200000  85.6320000  58.4770000
  47.6040000  87.0600000  58.8910000  51.2180000  67.9820000  73.0190000
  51.0390000  67.8980000  73.9550000  51.7480000  68.7770000  72.9470000
  50.1800000  50.1380000  56.5480000  49.7790000  50.9990000  56.4300000
  51.1170000  50.2910000  56.4220000  54.5410000  40.5010000  81.7880000
  55.0400000  39.6930000  81.6700000  53.6770000  40.2100000  82.0800000
  57.2480000  65.3790000  78.4360000  57.9050000  65.1650000  77.7750000
  56.4250000  65.0520000  78.0710000  34.7090000  71.5280000  82.4820000
  34.0010000  70.8830000  82.4920000  34.4840000  72.1190000  81.7630000
  38.4600000  46.2770000  74.0590000  38.9830000  45.9920000  73.3100000
  38.6790000  47.2040000  74.1650000  60.7380000  81.0930000  62.0720000
  59.9760000  81.5040000  62.4790000  60.8910000  81.6030000  61.2770000
  34.8440000  45.8730000  62.1940000  35.1990000  46.4670000  61.5330000
  33.9350000  46.1520000  62.3030000  46.0620000  36.5780000  79.3600000
  45.9730000  35.6770000  79.0510000  45.1880000  36.8120000  79.6730000
  41.1290000  64.5080000  76.1710000  41.9260000  64.7370000  75.6940000
  40.6880000  63.8710000  75.6080000  78.7860000  86.0850000  57.1200000
  78.9610000  85.1450000  57.0840000  77.8560000  86.1490000  57.3360000
  44.2810000  86.5700000  88.9910000  43.3700000  86.4350000  89.2500000
  44.6350000  85.6870000  88.8850000  58.4980000  79.0450000  74.8120000
  57.9800000  78.4660000  75.3720000  58.4410000  78.6510000  73.9410000
  39.6820000  39.8300000  81.4580000  38.7570000  39.6850000  81.2580000
  40.1470000  39.1840000  80.9260000  80.1520000  58.4420000  67.0270000
  79.6720000  57.6570000  66.7620000  80.2470000  58.3570000  67.9760000
  35.8340000  32.0230000  92.1940000  35.8300000  31.1000000  92.4460000
  36.5600000  32.4040000  92.6900000  37.5050000  48.7490000  86.7200000
  37.7090000  47.9670000  86.2080000  38.0520000  49.4360000  86.3360000
  49.0790000  61.7490000  72.4190000  49.3850000  62.6540000  72.4750000
  48.1500000  61.8230000  72.1980000  48.0840000  62.8750000  63.8320000
  48.2970000  61.9430000  63.7870000  47.1270000  62.9010000  63.8620000
  35.0810000  67.4670000  69.8930000  35.0360000  66.5160000  69.9920000
  35.8760000  67.6170000  69.3800000  70.4710000  52.8080000  59.3760000
  71.2090000  53.4130000  59.3050000  69.6970000  53.3710000  59.3670000
  43.5380000  72.9700000  81.7860000  42.9930000  72.5290000  81.1340000
  43.3290000  72.5300000  82.6100000  57.8850000  38.1670000  84.9730000
  58.7700000  37.9270000  84.7010000  57.9970000  38.5530000  85.8420000
  63.9380000  37.5750000  83.7290000  64.8920000  37.5680000  83.8000000
  63.7160000  38.4920000  83.5630000  46.3750000  34.9800000  70.4990000
  46.7800000  35.8360000  70.3570000  47.0880000  34.4290000  70.8230000
  61.3570000  67.4970000  71.5060000  60.6320000  67.5090000  70.8810000
  60.9560000  67.7350000  72.3430000  40.5050000  87.7190000  56.3760000
  40.2260000  88.5780000  56.6930000  39.7120000  87.3320000  56.0030000
  34.9350000  65.7950000  64.2760000  34.3250000  66.1510000  64.9220000
  35.4030000  66.5600000  63.9400000  73.5820000  79.9600000  87.5300000
  74.1260000  80.7440000  87.4600000  72.7340000  80.2830000  87.8360000
  69.9910000  85.6410000  80.2510000  69.5390000  86.2180000  80.8660000
  69.6560000  84.7670000  80.4500000  42.3370000  34.4540000  72.8260000
  42.7670000  34.9640000  73.5130000  42.4220000  34.9930000  72.0390000
  80.7960000  38.1380000  69.6710000  81.0710000  37.2920000  69.3180000
  80.1210000  37.9210000  70.3150000  41.3480000  42.9430000  71.0220000
  41.7380000  42.0720000  71.0960000  40.7300000  42.9910000  71.7510000
  52.8060000  48.2760000  75.3180000  53.4420000  47.5680000  75.2190000
  52.0300000  47.8520000  75.6850000  52.9950000  83.8500000  61.9010000
  53.3780000  84.7250000  61.8370000  53.7480000  83.2640000  61.9830000
  51.6430000  89.0000000  56.2710000  52.3430000  88.9830000  56.9230000
  51.5450000  88.0870000  56.0000000  39.7160000  47.9900000  76.9430000
  40.4160000  47.3600000  76.7720000  38.9200000  47.4580000  76.9840000
  47.1120000  48.4970000  80.3310000  47.0200000  47.8060000  80.9870000
  46.5450000  49.2020000  80.6430000  73.3040000  45.7270000  70.8480000
  73.4740000  44.9550000  71.3880000  73.1850000  46.4380000  71.4770000
  67.7420000  53.9750000  64.8190000  68.1040000  53.2950000  65.3870000
  66.9390000  53.5910000  64.4660000  58.7280000  63.8290000  57.8170000
  58.5490000  62.8910000  57.7600000  57.8620000  64.2370000  57.8470000
  46.8450000  35.6570000  73.6260000  47.5060000  36.0470000  73.0550000
  46.5410000  36.3820000  74.1720000  53.5720000  41.6230000  65.7760000
  54.0540000  42.2640000  66.2980000  53.5780000  41.9830000  64.8880000
  77.0860000  81.0360000  80.5490000  76.7380000  81.8230000  80.9680000
  76.8150000  80.3190000  81.1220000  61.5140000  31.5830000  79.8190000
  60.8280000  31.0000000  80.1440000  62.2410000  31.0000000  79.6000000
  69.8100000  75.2560000  68.0350000  69.9720000  74.8690000  68.8960000
  68.9100000  75.5800000  68.0840000  76.0140000  47.4100000  59.6770000
  76.9630000  47.5290000  59.6350000  75.8350000  46.6940000  59.0680000
  56.2600000  76.2320000  73.0600000  56.6510000  76.9470000  73.5620000
  56.9810000  75.8890000  72.5310000  50.7890000  51.1630000  60.0460000
  50.9610000  50.2720000  60.3500000  49.8360000  51.2140000  59.9770000
  60.3230000  40.5870000  88.3780000  60.6480000  40.1870000  89.1840000
  59.6770000  39.9640000  88.0440000  54.0840000  51.2320000  56.1040000
  53.4100000  51.9040000  56.0000000  53.6050000  50.4040000  56.0650000
  82.6260000  71.0270000  93.9120000  82.2700000  70.1540000  94.0780000
  81.8550000  71.5850000  93.8080000  54.1440000  61.3130000  91.9320000
  53.9290000  60.3900000  92.0600000  54.9220000  61.3030000  91.3740000
  48.3180000  81.8270000  65.0530000  48.4140000  81.0610000  64.4880000
  47.3840000  81.8540000  65.2630000  67.3520000  54.1170000  95.9460000
  67.8790000  54.7380000  96.4480000  66.5900000  53.9460000  96.5000000
  83.9590000  70.4530000  71.8690000  84.4210000  70.4320000  71.0310000
  83.4090000  69.6690000  71.8590000  49.2900000  38.6600000  67.0830000
  49.4320000  39.2450000  66.3380000  49.4600000  39.2050000  67.8510000
  68.1610000  88.9870000  64.5050000  68.3050000  89.0000000  65.4510000
  69.0410000  89.0000000  64.1280000  47.3430000  32.5030000  78.4190000
  46.5160000  32.9730000  78.5270000  47.1070000  31.7120000  77.9330000
  60.3590000  44.5790000  90.9470000  61.0290000  44.7960000  90.2990000
  60.6520000  45.0130000  91.7490000  40.0200000  77.2390000  73.7740000
  40.4340000  76.9940000  72.9470000  39.0940000  77.3460000  73.5560000
  54.7280000  55.4730000  72.6260000  53.7860000  55.4690000  72.7950000
  54.8080000  55.7700000  71.7190000  62.0460000  84.2040000  80.6020000
  62.5160000  84.7880000  80.0070000  62.3130000  84.4880000  81.4770000
  71.0700000  64.4090000  73.8070000  70.9240000  63.5580000  74.2200000
  70.2670000  64.5770000  73.3140000  80.1370000  53.2170000  78.1180000
  79.2210000  52.9440000  78.0630000  80.1100000  54.0510000  78.5880000
  45.5890000  77.2060000  87.4200000  46.4510000  77.0820000  87.0220000
  44.9730000  76.8690000  86.7700000  80.1380000  85.3440000  90.2540000
  80.9630000  84.9260000  90.0070000  80.0680000  85.1990000  91.1970000
  60.8950000  36.4130000  71.8540000  60.8810000  35.5710000  72.3080000
  61.4520000  36.2630000  71.0890000  57.4710000  44.1480000  96.5000000
  57.4070000  43.1930000  96.4930000  56.5630000  44.4500000  96.4830000
  83.4400000  79.8070000  88.1730000  84.3950000  79.8610000  88.1310000
  83.1770000  80.5790000  88.6750000  64.9810000  78.0740000  74.5620000
  64.7520000  78.7600000  73.9360000  64.7120000  78.4250000  75.4120000
  80.8460000  87.7200000  61.0940000  80.0800000  87.1540000  61.0040000
  81.5720000  87.1970000  60.7530000  83.6640000  40.6620000  96.1280000
  82.8960000  40.0940000  96.1770000  84.3900000  40.1100000  96.4230000
  71.4220000  53.5530000  84.6930000  71.6490000  52.8800000  84.0510000
  71.1100000  53.0630000  85.4540000  84.3810000  73.6980000  95.8970000
  84.0260000  74.3500000  96.5000000  85.0030000  73.1970000  96.4240000
  84.3460000  50.2710000  67.5220000  83.5270000  49.9800000  67.1220000
  84.0800000  50.9300000  68.1630000  73.0540000  40.2400000  66.4930000
  72.8590000  39.3210000  66.6740000  73.3460000  40.2480000  65.5800000
  44.5400000  35.2370000  84.1660000  44.3210000  36.1510000  83.9850000
  43.6920000  34.8020000  84.2630000  41.0330000  54.4490000  75.1060000
  40.6820000  55.3230000  75.2720000  40.5380000  54.1310000  74.3500000
  67.3670000  59.9340000  58.8070000  67.9900000  59.3180000  59.1910000
  66.7770000  59.3870000  58.2870000  54.8130000  77.1210000  86.4240000
  54.2980000  76.5360000  86.9790000  54.3710000  77.9680000  86.4930000
  39.3580000  68.2940000  71.0490000  39.7390000  69.1680000  71.1290000
  39.9890000  67.7180000  71.4810000  35.2940000  41.4980000  89.2570000
  35.2950000  40.6650000  88.7860000  34.3700000  41.7460000  89.3030000
  73.5240000  72.6140000  58.3430000  73.7560000  72.0320000  57.6200000
  73.5630000  72.0580000  59.1220000  47.8090000  53.5270000  68.8230000
  48.5330000  53.4920000  69.4480000  48.1590000  54.0160000  68.0780000
  47.6830000  42.2100000  65.3300000  47.2700000  41.9650000  64.5020000
  48.4840000  41.6850000  65.3630000  79.6040000  82.9070000  96.5000000
  80.1120000  82.0970000  96.5000000  78.6910000  82.6180000  96.5000000
  48.3650000  58.0120000  83.5820000  47.4200000  58.1430000  83.5020000
  48.6640000  57.8710000  82.6830000  72.2120000  58.3130000  83.0770000
  72.9550000  58.7850000  82.7000000  71.4670000  58.9020000  82.9550000
  85.3130000  77.5740000  83.0160000  85.0660000  78.2850000  83.6060000
  86.1510000  77.8500000  82.6450000  86.3000000  33.8250000  90.0920000
  85.8600000  34.0600000  89.2750000  85.6560000  33.3030000  90.5700000
  37.5330000  48.2330000  80.6230000  38.0950000  47.4580000  80.6470000
  36.9220000  48.1080000  81.3500000  84.6150000  88.9770000  71.2100000
  83.7560000  89.0000000  70.7900000  85.2380000  89.0000000  70.4830000
  33.5620000  67.6550000  67.3220000  33.9760000  66.7920000  67.3130000
  34.2470000  68.2530000  67.0240000  31.0020000  37.4970000  88.7840000
  31.2770000  36.6930000  89.2240000  31.0000000  38.1600000  89.4750000
  31.0030000  75.4730000  78.2330000  31.0300000  76.3240000  78.6690000
  31.9230000  75.2450000  78.0950000  77.8650000  39.0540000  57.4990000
  77.0120000  39.1600000  57.9200000  78.3710000  39.8150000  57.7870000
  56.6770000  59.5970000  60.7700000  56.1520000  60.3320000  60.4510000
  56.0550000  59.0490000  61.2490000  34.1480000  39.3050000  96.2480000
  33.2340000  39.4370000  96.5000000  34.2660000  39.8600000  95.4760000
  65.4070000  62.4380000  77.6740000  65.6280000  63.1120000  78.3160000
  64.4530000  62.4770000  77.6030000  51.2690000  56.9790000  73.5150000
  51.1600000  57.6820000  72.8750000  50.4960000  57.0450000  74.0770000
  84.8110000  40.2540000  90.4190000  84.0220000  39.8040000  90.7210000
  85.1040000  40.7600000  91.1780000  66.2220000  51.0680000  63.7200000
  65.3200000  51.3760000  63.8030000  66.4910000  50.8690000  64.6180000
  88.9560000  39.8480000  84.4270000  89.0000000  40.3050000  85.2670000
  88.0560000  39.5250000  84.3760000  35.8100000  42.6770000  86.4840000
  36.5230000  42.4940000  87.0960000  35.0340000  42.2990000  86.8990000
  42.5140000  55.4250000  72.9870000  42.8890000  56.3060000  72.9880000
  41.7050000  55.5100000  72.4810000  78.3300000  81.7630000  87.1830000
  78.9230000  82.2830000  86.6410000  78.8330000  81.5770000  87.9770000
  31.0000000  80.4870000  64.3670000  31.0050000  79.5350000  64.2700000
  31.0210000  80.6310000  65.3140000  79.6280000  41.5310000  59.4010000
  78.9240000  42.0620000  59.7720000  79.8780000  41.9910000  58.5990000
  34.6410000  35.3170000  92.2370000  33.9310000  35.9530000  92.1560000
  34.4470000  34.8420000  93.0460000  33.1300000  56.3940000  88.6230000
  33.0280000  55.8650000  87.8320000  32.2450000  56.4640000  88.9810000
  73.0050000  64.6710000  78.3490000  72.1340000  64.4260000  78.6620000
  73.2220000  65.4640000  78.8410000  31.0000000  88.7980000  59.3040000
  31.3310000  89.0000000  58.4290000  31.0060000  87.8410000  59.3480000
  33.7640000  41.8160000  84.8000000  33.6650000  40.8660000  84.8620000
  34.5320000  41.9420000  84.2430000  39.2410000  62.3200000  94.5770000
  38.8040000  62.0880000  95.3960000  39.7720000  61.5530000  94.3630000
  39.2440000  61.2420000  81.9330000  38.3690000  60.9000000  81.7540000
  39.6160000  60.6300000  82.5690000  33.1120000  38.0350000  90.8070000
  32.9320000  38.2050000  91.7320000  33.7540000  38.7010000  90.5620000
  88.4940000  78.6490000  58.8500000  89.0000000  79.4600000  58.8140000
  88.1690000  78.6080000  59.7500000  59.8400000  66.9880000  82.0630000
  59.2700000  67.0660000  82.8270000  59.4330000  67.5480000  81.4010000
  65.1310000  75.5160000  56.0000000  65.1290000  76.4730000  56.0070000
  64.5450000  75.2680000  56.7150000  37.6730000  31.5840000  76.9450000
  37.1520000  31.0000000  77.4950000  38.2660000  31.0000000  76.4710000
  44.1510000  64.1660000  64.3070000  44.9170000  64.6950000  64.0850000
  43.4780000  64.4480000  63.6870000  37.1100000  80.1610000  63.1180000
  36.6260000  79.4400000  62.7140000  36.4320000  80.7740000  63.4020000
  86.5950000  52.1380000  89.0550000  85.8040000  51.6180000  89.1960000
  86.9140000  51.8600000  88.1960000  31.5790000  37.4930000  96.4580000
  31.0000000  38.2530000  96.5000000  31.0000000  36.7620000  96.2380000
  50.5050000  31.0000000  78.2570000  49.5680000  31.1090000  78.0950000
  50.5920000  31.0560000  79.2090000  63.4670000  43.8230000  80.2210000
  62.9650000  43.0770000  79.8920000  63.8180000  43.5230000  81.0600000
  87.6630000  68.8370000  71.7090000  86.9250000  69.3310000  72.0650000
  88.3800000  69.4700000  71.6710000  78.7030000  39.0060000  65.1880000
  79.6390000  39.1870000  65.2770000  78.3070000  39.8640000  65.0300000
  37.0730000  67.3300000  96.3560000  37.2510000  67.4230000  95.4210000
  36.2730000  67.8360000  96.5000000  68.7330000  73.1460000  66.2850000
  69.6480000  73.4190000  66.3470000  68.2400000  73.9660000  66.2480000
  89.0000000  76.1760000  91.2530000  88.6750000  76.4300000  90.3890000
  88.9920000  76.9870000  91.7610000  60.6480000  69.1910000  84.1030000
  60.1210000  69.9830000  84.0030000  60.8990000  68.9540000  83.2100000
  46.1660000  89.0000000  56.1400000  45.6030000  88.2390000  56.0000000
  46.5550000  88.8560000  57.0030000  46.2760000  74.0790000  93.2140000
  46.5470000  74.3190000  94.1000000  46.8760000  74.5570000  92.6420000
  40.8800000  77.5540000  59.8090000  40.5980000  76.6670000  59.5860000
  41.8360000  77.5130000  59.7900000  49.2080000  49.4940000  63.0080000
  49.7280000  50.0180000  63.6180000  48.8750000  50.1260000  62.3710000
  31.0180000  74.0920000  60.9560000  31.0530000  74.8640000  60.3910000
  31.0000000  74.4460000  61.8460000  56.7330000  60.3450000  76.3580000
  57.0080000  59.4390000  76.5010000  55.7900000  60.2870000  76.2010000
  34.6630000  50.0020000  90.8620000  35.3680000  50.6120000  91.0800000
  33.9180000  50.5640000  90.6460000  48.1300000  87.0630000  61.3350000
  48.8980000  86.4920000  61.3600000  47.3850000  86.4620000  61.3080000
  64.2820000  83.6120000  77.3100000  64.1160000  82.8110000  76.8140000
  65.2370000  83.6620000  77.3740000  74.5920000  56.9600000  87.1920000
  73.6560000  57.1560000  87.1580000  75.0180000  57.8180000  87.1700000
  44.1710000  32.8770000  64.1090000  43.7780000  33.6550000  64.5040000
  44.6600000  33.2100000  63.3570000  67.5590000  54.6860000  69.4360000
  67.0280000  55.4830000  69.4290000  68.4630000  55.0010000  69.4420000
  61.2400000  64.1230000  65.8170000  60.7860000  63.2820000  65.8680000
  60.5380000  64.7710000  65.7520000  66.0280000  71.3390000  65.8780000
  65.5110000  72.1240000  65.6950000  66.7390000  71.6460000  66.4400000
  58.2570000  82.3260000  89.4360000  59.1840000  82.0920000  89.3900000
  57.8390000  81.7870000  88.7640000  76.7900000  57.8410000  92.0750000
  76.6560000  58.0050000  93.0090000  76.1900000  58.4450000  91.6370000
  85.2660000  48.3430000  69.3540000  84.3190000  48.3910000  69.2270000
  85.5400000  49.2540000  69.4690000  75.5690000  42.3100000  94.3890000
  75.3080000  43.1730000  94.0680000  75.7810000  41.8140000  93.5980000
  71.2990000  69.5670000  87.5850000  71.4910000  70.4220000  87.9720000
  72.1570000  69.1630000  87.4600000  83.2570000  43.9420000  80.7290000
  82.3310000  43.7630000  80.8930000  83.3960000  44.8220000  81.0800000
  65.9410000  34.2910000  92.9440000  65.3120000  35.0050000  92.8380000
  65.4010000  33.5030000  93.0090000  72.6450000  73.4190000  93.4820000
  73.5850000  73.2400000  93.4410000  72.5870000  74.3530000  93.6820000
  73.7810000  34.1230000  75.9030000  73.0270000  33.5380000  75.8290000
  73.4910000  34.9410000  75.4980000  42.5460000  37.2740000  56.1180000
  42.3950000  37.1250000  57.0510000  42.6200000  38.2250000  56.0350000
  73.7750000  61.3530000  72.5170000  74.6480000  61.6350000  72.7890000
  73.1790000  61.9720000  72.9400000  34.8080000  45.7850000  93.1170000
  34.3800000  46.6370000  93.1960000  34.0970000  45.1490000  93.2000000
  31.2010000  31.0000000  63.9030000  31.0000000  31.0480000  64.8380000
  32.1570000  31.0390000  63.8620000  78.9050000  81.9620000  90.9500000
  79.2800000  82.8420000  90.9230000  78.3340000  81.9680000  91.7190000
  89.0000000  32.3490000  72.0140000  88.2290000  32.6930000  72.4660000
  88.9500000  31.4010000  72.1410000  75.4970000  86.7880000  82.2320000
  75.1690000  87.1520000  83.0540000  74.7430000  86.8060000  81.6430000
  71.7660000  70.2290000  61.3710000  72.4290000  70.9190000  61.3780000
  70.9500000  70.6770000  61.5930000  42.1640000  67.1700000  85.8500000
  42.7530000  67.6120000  86.4610000  41.9900000  67.8220000  85.1700000
  71.7450000  32.5220000  91.6750000  71.9030000  32.6470000  90.7400000
  71.8670000  31.5830000  91.8160000  61.5510000  69.2110000  93.2280000
  61.5100000  70.1630000  93.1430000  62.4830000  69.0040000  93.1580000
  34.9200000  70.7120000  95.8210000  34.0730000  70.9050000  95.4200000
  34.7230000  70.0660000  96.5000000  36.4170000  63.9510000  56.0000000
  37.1150000  63.2960000  56.0000000  36.8760000  64.7910000  56.0000000
  48.5840000  47.6880000  71.7650000  48.0170000  46.9460000  71.9760000
  48.0760000  48.2080000  71.1420000  58.2790000  43.1900000  62.7900000
  58.2390000  44.1460000  62.8160000  59.1650000  42.9960000  62.4830000
  84.5600000  70.1210000  96.5000000  85.4680000  70.4100000  96.4160000
  84.2510000  70.0350000  95.5980000  51.9710000  68.3090000  82.4920000
  52.8840000  68.4030000  82.2200000  51.8980000  68.8520000  83.2770000
  86.3490000  59.8310000  74.8590000  86.9890000  60.4960000  75.1130000
  86.7330000  59.4100000  74.0890000  80.6950000  53.6500000  91.0870000
  79.7790000  53.4060000  91.2210000  80.8620000  54.3250000  91.7450000
  44.0050000  49.5210000  65.7140000  44.8810000  49.1570000  65.5830000
  43.4530000  48.7600000  65.8920000  37.6560000  88.7250000  80.9250000
  37.6980000  87.7730000  81.0150000  36.9020000  88.9830000  81.4550000
  74.9010000  68.2960000  89.9900000  74.3300000  67.5390000  89.8550000
  74.3010000  69.0180000  90.1790000  88.7720000  58.3420000  88.3630000
  88.9960000  57.9420000  89.2030000  89.0000000  57.6780000  87.7120000
  63.0370000  50.4460000  67.2950000  62.4860000  50.2220000  68.0440000
  63.3520000  49.6020000  66.9680000  88.6880000  68.5470000  86.9830000
  89.0000000  67.6810000  87.2430000  89.0000000  69.1320000  87.6740000
  77.8920000  66.2130000  65.2880000  77.0660000  65.9090000  64.9120000
  77.6460000  66.9590000  65.8360000  50.4150000  47.2050000  60.9110000
  51.1520000  47.8120000  60.9690000  49.8130000  47.4920000  61.5980000
  45.4370000  45.0030000  81.2520000  44.8210000  45.7360000  81.2340000
  46.2990000  45.4150000  81.3050000  54.3970000  36.0330000  96.4770000
  55.2510000  36.4660000  96.4730000  54.6030000  35.0980000  96.5000000
  67.7810000  60.5640000  62.1700000  67.3460000  60.4500000  61.3250000
  67.5970000  61.4710000  62.4140000  68.0870000  83.0460000  87.6220000
  67.1400000  83.1790000  87.6470000  68.2140000  82.3440000  86.9820000
  47.0610000  61.2230000  74.8930000  46.9400000  60.5070000  75.5170000
  47.9850000  61.4590000  74.9760000  64.7620000  64.9270000  70.0630000
  64.0980000  65.6140000  70.1210000  64.2610000  64.1120000  70.0160000
  65.2860000  80.8340000  96.4360000  66.1920000  81.1350000  96.5000000
  65.3530000  79.8810000  96.3800000  64.6940000  31.5550000  77.4260000
  64.1690000  31.0010000  76.8490000  64.8730000  31.0060000  78.1890000
  69.6970000  89.0000000  70.8350000  69.7920000  88.0740000  70.6130000
  69.4030000  88.9990000  71.7470000  45.7670000  67.2760000  80.7440000
  45.7910000  67.8480000  81.5110000  45.6840000  67.8750000  80.0010000
  65.1710000  33.7070000  79.7030000  64.6540000  32.9090000  79.8150000
  66.0460000  33.4720000  80.0150000  60.0090000  43.4530000  83.6390000
  59.7930000  42.8100000  82.9640000  59.1900000  43.5830000  84.1180000
  55.3880000  62.7530000  96.2470000  54.6170000  62.2460000  96.5000000
  55.9250000  62.1400000  95.7440000  56.0180000  42.9940000  64.9120000
  56.0750000  42.3930000  64.1700000  56.5800000  43.7300000  64.6690000
  81.6500000  85.8960000  83.3640000  81.9190000  85.1790000  82.7890000
  82.4380000  86.4290000  83.4690000  72.4860000  59.6000000  76.3550000
  71.5740000  59.8800000  76.4280000  72.4580000  58.8430000  75.7690000
  63.0040000  45.6750000  87.9180000  63.1850000  45.6460000  86.9790000
  62.0510000  45.7480000  87.9760000  32.4680000  39.5660000  82.8710000
  32.7370000  39.0150000  82.1350000  31.5110000  39.5290000  82.8600000
  67.8600000  64.1010000  69.1900000  68.5390000  63.4350000  69.0920000
  67.6130000  64.0580000  70.1140000  57.5480000  71.6440000  70.5700000
  57.2320000  70.7660000  70.3560000  56.7550000  72.1400000  70.7750000
  59.1850000  64.1510000  71.0080000  58.3160000  64.1700000  71.4080000
  59.3070000  65.0330000  70.6570000  64.5110000  68.3410000  80.3490000
  63.9820000  69.1000000  80.5930000  64.4130000  67.7340000  81.0830000
  78.2920000  58.1160000  74.0950000  77.7610000  57.3210000  74.0470000
  77.6530000  58.8290000  74.1190000  87.0870000  86.3360000  58.1600000
  86.9670000  86.1760000  59.0960000  86.3290000  85.9230000  57.7470000
  86.0960000  66.3890000  56.0050000  86.3490000  67.3120000  56.0330000
  86.9260000  65.9120000  56.0000000  62.5910000  86.3200000  87.6300000
  62.0240000  87.0900000  87.6680000  62.6230000  86.0000000  88.5320000
  54.8200000  53.1380000  89.4790000  54.0810000  52.5870000  89.7360000
  54.7260000  53.9290000  90.0100000  43.1810000  78.4320000  67.7910000
  43.5480000  78.5500000  68.6670000  42.9550000  79.3180000  67.5050000
  79.3530000  46.4970000  86.9210000  79.7790000  47.3230000  87.1500000
  79.9590000  46.0770000  86.3100000  73.2700000  68.8710000  76.1810000
  73.3110000  67.9150000  76.1540000  72.3340000  69.0700000  76.2240000
  57.1520000  34.7200000  65.5210000  57.8700000  35.2900000  65.7950000
  56.7390000  35.1870000  64.7940000  47.3680000  52.9060000  59.9560000
  48.2300000  53.0900000  59.5840000  47.0310000  53.7640000  60.2150000
  68.0150000  35.8590000  67.0340000  67.9460000  34.9220000  66.8490000
  67.9870000  35.9170000  67.9890000  42.4350000  89.0000000  81.5800000
  42.1870000  88.0910000  81.7480000  43.3630000  88.9560000  81.3480000
  37.5150000  69.4840000  75.5040000  37.0210000  70.3040000  75.5120000
  37.0750000  68.9440000  74.8470000  74.3120000  52.0540000  85.0530000
  73.5110000  51.5310000  85.0320000  74.0230000  52.9440000  84.8490000
  78.0930000  73.8850000  85.8420000  78.9300000  74.3250000  85.9870000
  77.7160000  73.7910000  86.7170000  35.8160000  48.6910000  84.5700000
  36.3010000  47.9980000  84.1220000  36.3010000  49.4920000  84.3690000
  51.9310000  82.9330000  92.0790000  51.0600000  82.7100000  92.4080000
  52.3880000  82.0940000  92.0210000  55.1340000  40.7160000  72.8370000
  54.5040000  40.1950000  72.3390000  54.6640000  41.5230000  73.0480000
  50.0010000  43.0870000  63.2880000  49.3110000  42.4460000  63.1180000
  50.8070000  42.5710000  63.3190000  41.9750000  33.8500000  82.1340000
  42.8680000  33.5340000  82.2720000  41.4660000  33.0590000  81.9550000
  43.5700000  51.8000000  85.3140000  43.1130000  51.2860000  84.6490000
  43.8590000  51.1550000  85.9590000  40.9820000  37.8320000  67.8540000
  41.6790000  37.2120000  67.6420000  41.1710000  38.1080000  68.7510000
  66.5790000  49.5980000  71.7450000  66.9200000  50.4470000  71.4670000
  65.7200000  49.7950000  72.1210000  61.2750000  55.7310000  56.1380000
  62.0070000  56.3390000  56.0420000  60.4960000  56.2710000  56.0010000
  79.7090000  77.6590000  60.2870000  80.4540000  78.2260000  60.4860000
  78.9980000  78.2630000  60.0710000  35.6470000  61.9950000  58.1670000
  35.8920000  62.3820000  59.0080000  34.7060000  62.1590000  58.0940000
  86.9680000  77.4480000  94.0580000  86.3740000  78.1980000  94.0480000
  87.8440000  77.8340000  94.0570000  35.2440000  42.7780000  58.7820000
  34.5690000  42.4600000  59.3810000  35.8930000  42.0750000  58.7560000
  44.2970000  69.3870000  75.0540000  44.7460000  68.5450000  74.9800000
  45.0000000  70.0370000  75.0230000  49.1130000  69.6770000  71.6440000
  49.7300000  70.3880000  71.4720000  49.4420000  68.9430000  71.1230000
  83.9370000  81.9550000  75.4960000  84.3070000  81.3520000  76.1400000
  83.0150000  82.0340000  75.7440000  74.7110000  85.4040000  56.0040000
  74.3560000  84.5610000  56.2840000  75.6600000  85.2780000  56.0060000
  51.1300000  71.0830000  61.0570000  50.6130000  70.2980000  60.8800000
  51.4980000  70.9370000  61.9290000  37.9960000  33.6290000  74.1130000
  38.6300000  33.2760000  73.4880000  38.2720000  33.2770000  74.9590000
  46.4740000  71.8180000  61.9010000  46.9820000  71.8030000  62.7120000
  45.9820000  72.6380000  61.9420000  57.8980000  81.9680000  92.8410000
  58.7520000  81.6270000  93.1020000  57.7730000  82.7460000  93.3850000
  70.6490000  41.5380000  85.7600000  70.2270000  42.0920000  85.1040000
  70.7470000  42.1050000  86.5260000  35.1260000  41.2890000  56.0170000
  34.5830000  42.0770000  56.0000000  36.0260000  41.6180000  56.0140000
  55.7970000  51.3670000  61.7180000  55.1320000  50.6850000  61.6250000
  55.4840000  52.0830000  61.1650000  67.6680000  50.5140000  87.3620000
  67.7390000  51.3080000  86.8320000  66.7610000  50.5120000  87.6700000
  76.3920000  47.4590000  87.5690000  76.7630000  48.3040000  87.3160000
  75.7690000  47.6700000  88.2650000  43.8530000  38.3860000  66.0630000
  44.0050000  38.3400000  67.0070000  43.7590000  37.4730000  65.7900000
  71.8560000  71.5580000  74.5690000  71.3060000  70.7760000  74.5340000
  71.6630000  71.9490000  75.4220000  39.7630000  41.4020000  85.7840000
  39.7730000  40.6570000  85.1840000  38.9120000  41.3480000  86.2200000
  78.4750000  52.6680000  56.0470000  78.5230000  51.7140000  56.0000000
  77.5370000  52.8600000  56.0690000  44.8280000  34.8580000  89.7340000
  44.4250000  35.1740000  88.9260000  44.2020000  34.2230000  90.0830000
  50.8800000  42.0720000  56.0000000  50.0430000  42.1840000  56.4510000
  51.4010000  42.8290000  56.2700000  50.2920000  81.7520000  77.0180000
  49.4150000  81.9770000  77.3290000  50.1420000  81.1260000  76.3090000
  75.6490000  34.2480000  95.5750000  75.5620000  35.1430000  95.2480000
  75.4080000  34.3070000  96.5000000  70.8650000  60.1990000  73.5780000
  70.9170000  61.0360000  74.0390000  71.7680000  59.8820000  73.5520000
  58.0840000  65.2490000  88.4480000  58.1050000  65.7800000  87.6520000
  57.4210000  64.5800000  88.2730000  85.7610000  57.4880000  76.5200000
  85.7490000  57.5090000  75.5630000  86.3900000  58.1670000  76.7670000
  60.1790000  58.2440000  80.8720000  60.2260000  58.6720000  80.0170000
  60.4230000  58.9280000  81.4970000  50.3360000  51.4610000  90.2070000
  50.6350000  50.6080000  90.5230000  50.0590000  51.9260000  90.9970000
  59.2290000  33.5020000  80.0740000  58.4470000  33.3760000  80.6110000
  59.1430000  34.3910000  79.7290000  82.9830000  59.8670000  82.2990000
  82.3170000  60.5540000  82.2820000  83.8160000  60.3390000  82.3080000
  33.8750000  53.5860000  85.7000000  34.0810000  53.3140000  86.5940000
  34.7230000  53.6170000  85.2560000  40.9930000  49.7180000  56.2100000
  40.0780000  49.5820000  56.4540000  41.3180000  48.8420000  56.0000000
  54.5450000  54.9490000  62.5640000  55.1600000  54.3760000  62.1070000
  54.4250000  55.6930000  61.9730000  55.3660000  47.9230000  90.8820000
  56.2700000  47.6370000  91.0080000  54.8710000  47.1110000  90.7670000
  71.2740000  41.2930000  79.7080000  71.1450000  40.3610000  79.8850000
  72.2250000  41.4040000  79.6900000  66.6020000  76.9190000  86.4390000
  66.4920000  77.8380000  86.1970000  66.7650000  76.4700000  85.6090000
  65.7920000  82.3790000  85.6040000  66.2810000  81.5570000  85.5720000
  64.8730000  82.1130000  85.5640000  48.6340000  50.6830000  82.7840000
  49.5800000  50.6830000  82.6390000  48.3500000  49.8100000  82.5130000
  38.3740000  31.0520000  88.4540000  37.7840000  31.0000000  89.2050000
  38.6100000  31.9790000  88.3980000  65.4660000  50.6660000  59.0000000
  64.6100000  50.9050000  59.3550000  65.3720000  50.7710000  58.0530000
  67.7240000  72.9700000  71.2270000  68.4800000  73.5380000  71.3760000
  67.2910000  73.3430000  70.4590000  52.5420000  80.6500000  78.7000000
  52.0010000  81.4320000  78.8140000  52.1220000  80.1710000  77.9850000
  59.6510000  71.5280000  68.4790000  58.9230000  71.5970000  67.8620000
  59.9100000  72.4350000  68.6470000  69.1550000  78.9020000  70.0680000
  69.8460000  79.4290000  70.4700000  68.3580000  79.4170000  70.1940000
  50.0150000  73.8560000  94.1230000  49.2320000  74.4060000  94.1500000
  50.7440000  74.4770000  94.1050000  61.7050000  48.1380000  91.7460000
  61.8230000  47.2120000  91.5370000  60.9910000  48.4240000  91.1750000
  59.0400000  69.0650000  87.1550000  59.5430000  69.1710000  86.3480000
  58.6320000  68.2020000  87.0720000  72.6700000  49.6210000  82.6960000
  73.5260000  50.0420000  82.6190000  72.2720000  50.0260000  83.4670000
  53.4150000  54.8290000  66.3060000  54.0640000  55.1260000  65.6680000
  53.5800000  55.3640000  67.0830000  70.9660000  65.0130000  83.5160000
  70.7860000  65.9170000  83.2590000  71.7850000  65.0620000  84.0100000
  51.3760000  82.4330000  89.6220000  52.0140000  83.1350000  89.4900000
  50.5570000  82.8880000  89.8180000  69.0900000  56.3460000  91.0430000
  68.2730000  55.8470000  91.0460000  69.6810000  55.8410000  91.6030000
  58.8530000  74.0150000  66.6140000  58.3560000  74.4630000  67.2990000
  59.2160000  74.7230000  66.0810000  76.6130000  76.3740000  87.2290000
  76.1920000  75.5830000  87.5640000  76.0110000  77.0820000  87.4610000
  76.3460000  38.8550000  88.7040000  76.5610000  37.9650000  88.9840000
  77.1750000  39.2120000  88.3840000  86.4470000  47.0240000  57.6090000
  86.4130000  46.4200000  58.3500000  86.1820000  46.4950000  56.8550000
  43.2430000  69.7920000  89.9910000  42.9730000  70.6350000  89.6280000
  43.0190000  69.1550000  89.3120000  58.5660000  84.0910000  66.4570000
  58.7880000  84.2950000  67.3650000  59.4000000  83.8520000  66.0530000
  33.9990000  62.5970000  80.1170000  33.7800000  61.6850000  80.3080000
  33.4290000  63.1060000  80.6950000  31.8960000  35.9000000  86.9360000
  31.0250000  35.5050000  86.9330000  32.4970000  35.1550000  86.9060000
  86.8570000  88.2640000  90.0690000  86.3910000  89.0030000  90.4590000
  86.9750000  87.6460000  90.7900000  53.7640000  66.6670000  59.3190000
  53.1610000  66.4880000  58.5990000  53.7240000  65.8820000  59.8660000
  31.4540000  49.4760000  96.5000000  32.3830000  49.7030000  96.5000000
  31.0000000  50.3190000  96.5000000  76.3060000  56.6410000  77.1530000
  76.6150000  57.2160000  77.8520000  76.4480000  57.1430000  76.3490000
  76.9010000  85.6140000  80.5260000  77.7970000  85.2790000  80.4940000
  76.9740000  86.5220000  80.2310000  31.6970000  76.2110000  89.3570000
  31.0000000  75.9600000  88.7510000  32.3340000  75.4990000  89.2990000
  65.5460000  36.8650000  89.0670000  64.7790000  37.3340000  89.3950000
  66.1430000  37.5550000  88.7770000  88.9430000  69.3830000  58.5110000
  88.1290000  69.6660000  58.0950000  88.7900000  68.4650000  58.7380000
  87.4900000  74.0210000  62.0980000  88.3730000  74.3010000  61.8570000
  86.9130000  74.5370000  61.5350000  70.6340000  80.7390000  74.2160000
  70.3880000  79.8500000  74.4720000  70.1580000  81.3040000  74.8250000
  63.7950000  60.7930000  91.4440000  63.6970000  60.0900000  92.0870000
  63.6330000  60.3710000  90.6000000  74.3390000  84.3540000  82.3550000
  73.8370000  84.8250000  83.0190000  74.0010000  83.4580000  82.3890000
  62.2120000  43.1760000  95.4730000  62.2580000  42.3310000  95.0260000
  61.8200000  42.9770000  96.3240000  38.0370000  86.3230000  83.0610000
  37.4650000  87.0170000  83.3870000  38.8930000  86.7410000  82.9660000
  40.9970000  40.3990000  90.6170000  41.6840000  40.3730000  89.9520000
  41.0210000  39.5310000  91.0210000  42.9280000  64.9010000  96.0980000
  43.5100000  64.2560000  96.5000000  43.2450000  65.7440000  96.4220000
  51.1330000  67.5670000  96.4700000  51.0820000  66.6200000  96.3410000
  50.2210000  67.8550000  96.4970000  71.5200000  57.3690000  58.9440000
  72.2910000  56.8040000  58.8830000  70.9980000  57.1470000  58.1730000
  61.9930000  72.3220000  66.5460000  61.4990000  73.1360000  66.6470000
  61.3240000  71.6400000  66.4910000  53.7980000  44.3130000  56.9280000
  53.6970000  43.3760000  57.0940000  53.5860000  44.4170000  56.0000000
  52.7850000  64.0160000  65.5290000  53.0320000  64.8320000  65.9650000
  52.9710000  63.3340000  66.1750000  44.6860000  82.0210000  73.7090000
  44.3580000  82.8070000  74.1460000  44.6760000  81.3460000  74.3890000
  59.8000000  32.2370000  56.3400000  59.2320000  32.9280000  56.0000000
  59.3280000  31.4250000  56.1570000  70.6010000  61.7060000  88.2640000
  71.5520000  61.6290000  88.1830000  70.4370000  62.6500000  88.2760000
  41.8710000  39.1150000  64.7250000  41.5110000  38.2940000  65.0590000
  42.2740000  38.8790000  63.8890000  68.1560000  63.7480000  77.8710000
  68.1960000  62.9740000  77.3090000  69.0710000  64.0030000  77.9940000
  61.4040000  37.9310000  81.8610000  61.6170000  38.0290000  80.9330000
  60.6270000  38.4760000  81.9870000  45.0510000  86.0400000  63.8130000
  45.7530000  86.0860000  63.1640000  44.2560000  86.2470000  63.3220000
  38.8680000  82.5970000  57.6050000  39.6820000  83.0370000  57.8470000
  38.9310000  81.7330000  58.0140000  76.7380000  40.7570000  70.7560000
  76.9570000  41.5830000  70.3260000  75.8240000  40.8610000  71.0230000
  82.4370000  63.9400000  83.7370000  82.2020000  64.8680000  83.7120000
  81.5980000  63.4790000  83.7340000  51.0100000  44.3460000  81.6960000
  50.6260000  45.2100000  81.5490000  50.2660000  43.7430000  81.6570000
  41.1640000  63.4020000  64.1850000  41.1420000  64.2810000  64.5640000
  41.6150000  62.8700000  64.8410000  45.3440000  37.7260000  86.3170000
  45.1480000  36.7900000  86.2860000  44.8320000  38.1020000  85.6000000
  45.2140000  62.2890000  89.4040000  45.8540000  61.9150000  90.0100000
  45.4190000  63.2250000  89.3860000  50.5410000  34.2160000  69.9210000
  49.8290000  34.0770000  70.5460000  50.9780000  33.3670000  69.8610000
  63.6550000  79.0390000  66.2980000  64.1080000  78.2270000  66.0720000
  62.7750000  78.9310000  65.9370000  84.3290000  49.5310000  91.1340000
  84.7380000  48.6680000  91.1970000  85.0640000  50.1410000  91.0730000
  45.4550000  53.3580000  83.6790000  46.2750000  53.3480000  83.1850000
  44.9180000  52.6820000  83.2640000  40.2780000  59.6480000  61.1030000
  40.7140000  58.8510000  60.8010000  39.4810000  59.3380000  61.5330000
  34.1870000  89.0000000  80.6740000  34.8670000  88.9400000  80.0030000
  33.3640000  88.9770000  80.1840000  73.6230000  61.9560000  94.2720000
  74.4370000  62.4580000  94.3200000  73.2030000  62.0980000  95.1200000
  74.0380000  71.9840000  72.1770000  73.8650000  71.8290000  73.1050000
  73.3980000  72.6490000  71.9210000  79.4410000  51.6420000  66.0150000
  78.8280000  52.3310000  66.2690000  79.8290000  51.3480000  66.8400000
  45.7510000  66.8850000  67.8790000  45.1320000  67.4840000  68.2970000
  45.8220000  66.1500000  68.4890000  86.0290000  68.0100000  88.1000000
  85.8090000  67.9500000  89.0290000  86.4290000  68.8740000  88.0030000
  72.2320000  76.7280000  80.3400000  73.0260000  76.6330000  79.8150000
  71.5210000  76.4830000  79.7470000  81.5600000  56.5440000  92.6600000
  81.1020000  57.2810000  92.2570000  82.4310000  56.5560000  92.2630000
  58.8450000  49.2230000  73.2990000  59.1560000  49.6980000  72.5290000
  59.6420000  48.9980000  73.7800000  84.7320000  81.5810000  80.6430000
  85.4860000  82.1560000  80.7700000  84.3550000  81.4830000  81.5180000
  89.0000000  63.6890000  92.0550000  88.2160000  64.2370000  92.0270000
  88.6790000  62.8230000  92.3070000  88.8890000  78.9110000  90.1680000
  88.9990000  79.0980000  89.2360000  89.0000000  79.7600000  90.5970000
  44.6460000  41.8630000  82.4660000  44.2990000  42.0210000  83.3440000
  44.4660000  42.6720000  81.9880000  85.3760000  55.4600000  67.8070000
  86.0220000  54.7770000  67.6240000  84.5850000  54.9810000  68.0560000
  50.6830000  68.8950000  58.5000000  50.9790000  68.0140000  58.2740000
  49.7370000  68.8090000  58.6170000  35.8580000  70.2330000  78.4590000
  36.0000000  69.3480000  78.7950000  35.0850000  70.5470000  78.9290000
  49.9150000  65.1730000  56.7530000  50.1890000  66.0780000  56.9030000
  50.4320000  64.8870000  56.0000000  62.1650000  88.4340000  78.4610000
  62.1200000  89.0000000  77.6900000  62.5040000  89.0000000  79.1550000
  43.0860000  38.3560000  88.1200000  42.4160000  37.7710000  87.7680000
  42.9340000  39.1910000  87.6760000  49.5310000  88.9740000  82.7360000
  48.5740000  88.9940000  82.7410000  49.7760000  89.0000000  83.6620000
  58.4730000  87.7600000  72.5200000  58.0010000  87.1260000  71.9800000
  58.3940000  87.4210000  73.4120000  31.9290000  52.9570000  79.7800000
  32.2630000  53.1420000  80.6570000  31.0000000  52.7660000  79.9130000
  71.4240000  81.7150000  82.6390000  72.3520000  81.5720000  82.4540000
  71.2600000  82.6150000  82.3590000  50.3480000  88.5840000  61.8730000
  50.5130000  87.9600000  62.5800000  49.5190000  89.0000000  62.1080000
  66.1680000  79.5600000  67.8100000  65.7440000  78.7410000  68.0640000
  66.4560000  79.9480000  68.6370000  49.4580000  81.9550000  80.2420000
  50.2830000  81.6490000  80.6190000  49.7040000  82.7070000  79.7030000
  33.4690000  68.5370000  89.1560000  33.2710000  67.6110000  89.0150000
  33.1440000  68.9750000  88.3690000  45.5520000  53.9990000  74.1760000
  44.6580000  54.2890000  73.9940000  45.9950000  54.7800000  74.5070000
  43.7710000  83.0590000  80.2400000  43.1490000  83.5000000  80.8180000
  44.6280000  83.3850000  80.5160000  32.0700000  46.9040000  79.5790000
  32.5930000  46.4770000  78.9010000  31.2010000  47.0000000  79.1870000
  62.7290000  81.8960000  81.2780000  62.6660000  81.4130000  80.4540000
  63.6680000  81.9440000  81.4570000  58.1270000  41.3270000  90.7200000
  57.6950000  41.8200000  91.4170000  58.9950000  41.7260000  90.6450000
  73.8440000  56.5850000  89.6270000  74.5890000  57.0190000  90.0410000
  74.1110000  55.6680000  89.5540000  82.8120000  47.1600000  86.2860000
  83.5590000  47.7470000  86.4000000  82.0970000  47.7340000  86.0080000
  85.6060000  81.7550000  89.2240000  84.8380000  82.2590000  89.4910000
  85.9970000  81.4590000  90.0470000  62.4160000  49.9860000  56.8690000
  62.7350000  50.3850000  56.0590000  62.9530000  50.3800000  57.5570000
  73.6880000  69.8610000  68.3480000  74.0530000  70.1190000  67.5020000
  74.1430000  69.0470000  68.5670000  38.5430000  42.3230000  88.7200000
  39.4890000  42.1770000  88.6950000  38.4490000  43.2740000  88.7870000
  69.7630000  59.3180000  90.4710000  70.4570000  59.8640000  90.1020000
  69.0400000  59.9240000  90.6320000  64.0410000  86.2370000  58.3130000
  63.8060000  85.3090000  58.3270000  63.2050000  86.6970000  58.3920000
  56.7250000  31.0320000  87.3980000  56.0900000  31.0800000  88.1120000
  56.7420000  31.9170000  87.0320000  45.1310000  71.7160000  84.5970000
  44.8710000  72.6370000  84.5760000  45.6190000  71.6230000  85.4160000
  65.0880000  43.0120000  78.2700000  64.3790000  42.4710000  77.9220000
  64.8250000  43.9100000  78.0670000  52.9460000  71.6100000  81.9580000
  53.4760000  72.3460000  82.2660000  53.4630000  70.8340000  82.1750000
  75.4650000  44.7160000  64.4610000  74.5470000  44.8840000  64.6720000
  75.7030000  45.4160000  63.8520000  44.8800000  39.4130000  74.6730000
  43.9670000  39.4430000  74.9590000  45.2340000  38.6230000  75.0840000
  84.8740000  40.8270000  70.5180000  85.7370000  41.2170000  70.6610000
  84.6780000  41.0080000  69.5980000  88.0560000  81.4670000  71.8170000
  89.0000000  81.6210000  71.7850000  87.9690000  80.5150000  71.8550000
  31.8310000  46.5340000  96.2290000  31.0000000  47.0080000  96.2150000
  32.4990000  47.2200000  96.2370000  44.8150000  83.3070000  94.2240000
  44.2480000  82.7360000  93.7050000  44.3030000  84.1070000  94.3450000
  68.3560000  56.1070000  77.1610000  67.4010000  56.1710000  77.1330000
  68.6190000  56.7350000  77.8350000  88.2130000  41.9970000  77.1810000
  88.8860000  41.5080000  76.7080000  88.6970000  42.4920000  77.8430000
  58.5890000  36.0380000  73.1910000  58.4640000  36.5790000  72.4120000
  58.0910000  36.4830000  73.8760000  62.1920000  42.0590000  89.7860000
  61.3960000  42.3240000  90.2460000  62.4680000  42.8450000  89.3130000
  64.3810000  67.2720000  56.0160000  63.4380000  67.1090000  56.0000000
  64.4590000  68.2250000  56.0680000  38.9560000  75.2200000  81.6100000
  38.2990000  75.1150000  80.9230000  38.7880000  76.0900000  81.9730000
  71.1490000  82.5400000  93.9180000  70.2080000  82.5870000  94.0830000
  71.4500000  83.4470000  93.9870000  84.8940000  89.0000000  87.2240000
  85.5530000  88.9990000  87.9180000  84.0600000  88.9070000  87.6840000
  41.0660000  33.2720000  85.7730000  40.1660000  33.5580000  85.9220000
  41.3960000  33.8610000  85.0940000  60.2270000  78.9600000  63.9140000
  60.3220000  78.0080000  63.9050000  59.2910000  79.1070000  64.0580000
  47.3350000  59.7150000  80.9400000  46.8190000  60.5000000  81.1210000
  48.1140000  60.0400000  80.4860000  64.3620000  46.5270000  56.0420000
  65.2050000  46.1000000  56.1970000  64.5700000  47.4610000  56.0000000
  55.4860000  79.5150000  95.6400000  55.0320000  78.9460000  95.0190000
  55.4180000  79.0580000  96.4790000  78.2310000  67.3800000  56.1970000
  77.7610000  68.1900000  56.0000000  79.1510000  67.5910000  56.0340000
  60.6320000  43.9020000  56.1680000  60.0660000  43.1490000  56.0000000
  61.5200000  43.5690000  56.0340000  63.3950000  31.5960000  60.5080000
  64.0900000  31.0090000  60.2110000  63.8580000  32.3550000  60.8640000
  76.7880000  33.9660000  67.4140000  77.0720000  34.7590000  67.8680000
  76.1310000  34.2690000  66.7870000  84.4790000  53.0770000  86.9210000
  83.5280000  52.9830000  86.8760000  84.6190000  53.9950000  87.1540000
  81.8550000  72.1290000  96.5000000  81.8690000  73.0860000  96.5000000
  82.7790000  71.8760000  96.5000000  47.3330000  40.9850000  96.4920000
  46.5200000  40.7390000  96.0500000  47.3210000  41.9420000  96.5000000
  82.2110000  81.1750000  78.1600000  83.0590000  81.5980000  78.2930000
  82.3980000  80.4430000  77.5710000  76.3200000  58.2800000  95.9320000
  75.5360000  58.2170000  96.4790000  76.9770000  58.6840000  96.5000000
  80.6740000  59.4790000  72.2490000  81.3860000  59.0600000  72.7310000
  79.9560000  59.5320000  72.8800000  32.9020000  36.5570000  79.9580000
  32.7640000  35.6330000  79.7510000  32.2380000  37.0200000  79.4460000
  41.8470000  74.3900000  57.4610000  42.4010000  74.2650000  56.6910000
  40.9960000  74.6460000  57.1050000  71.0050000  31.0300000  88.3590000
  71.7410000  31.6410000  88.3540000  70.7240000  31.0000000  89.2740000
  35.5080000  72.9880000  69.6970000  35.7630000  72.7220000  68.8150000
  36.0790000  72.4830000  70.2760000  83.1050000  59.3830000  91.8380000
  83.7260000  58.6840000  92.0420000  83.6530000  60.1120000  91.5450000
  63.6330000  66.8740000  76.5490000  64.3570000  67.4760000  76.7180000
  64.0440000  66.0100000  76.5090000  88.9780000  76.2060000  59.0700000
  88.7190000  75.8340000  59.9130000  88.1790000  76.1880000  58.5430000
  47.8480000  41.9400000  93.5520000  48.6580000  42.4490000  93.5240000
  48.1230000  41.0400000  93.3770000  38.0750000  44.1170000  80.5430000
  38.8620000  44.4060000  81.0050000  37.6300000  44.9290000  80.2960000
  41.9870000  59.2350000  78.0800000  41.6050000  58.5960000  78.6810000
  42.5330000  58.7140000  77.4910000  73.9800000  53.8690000  57.8950000
  73.4750000  53.1540000  58.2800000  74.8930000  53.5970000  57.9910000
  75.3000000  81.8580000  77.0270000  76.1450000  81.5860000  77.3830000
  75.0150000  81.1160000  76.4920000  65.2010000  66.8220000  67.9610000
  64.9770000  67.0510000  67.0590000  65.9430000  66.2230000  67.8800000
  43.3110000  42.6890000  77.3320000  43.6800000  42.2600000  76.5600000
  43.0650000  43.5620000  77.0260000  67.8050000  65.4620000  96.3830000
  67.5080000  66.3640000  96.5000000  67.0000000  64.9590000  96.2590000
  78.9280000  49.1720000  70.9050000  79.2560000  48.3400000  71.2450000
  78.0040000  49.1850000  71.1540000  43.0310000  74.7060000  76.4250000
  42.1200000  74.8260000  76.1590000  43.3210000  75.5800000  76.6890000
  70.2860000  42.6480000  74.3150000  70.9160000  41.9270000  74.3070000
  69.4510000  42.2340000  74.5390000  88.9790000  84.2000000  74.6060000
  89.0000000  83.7180000  73.7800000  88.4370000  83.6620000  75.1840000
  62.7040000  35.9370000  59.2990000  62.3180000  35.4320000  58.5830000
  61.9620000  36.1690000  59.8570000  73.2810000  48.9920000  59.3000000
  74.0780000  49.4990000  59.4580000  73.5760000  48.0820000  59.2790000
  66.9610000  79.4180000  75.8770000  67.3600000  78.7740000  75.2920000
  67.5700000  79.4820000  76.6130000  42.8600000  31.0770000  75.1360000
  43.7890000  31.0000000  75.3550000  42.4080000  31.0000000  75.9770000
  55.2970000  83.0280000  67.2500000  54.4310000  82.6220000  67.2240000
  55.1640000  83.8480000  67.7250000  36.6100000  44.6790000  60.5010000
  37.0530000  43.8310000  60.5140000  36.5480000  44.9040000  59.5720000
  65.2170000  35.3250000  60.9770000  64.8560000  36.1610000  61.2690000
  64.4550000  34.8210000  60.6910000  36.4750000  33.8250000  66.3950000
  36.0760000  33.5300000  67.2130000  36.3590000  33.0910000  65.7920000
  44.7310000  61.2850000  60.0480000  44.9270000  60.7540000  59.2760000
  44.5530000  60.6480000  60.7400000  38.6400000  49.7140000  64.3100000
  38.4460000  50.1000000  63.4560000  38.1890000  48.8690000  64.2990000
  66.7530000  39.7340000  78.7120000  67.0960000  38.8410000  78.7100000
  67.1930000  40.1630000  77.9780000  36.6970000  36.6000000  66.2750000
  35.9190000  36.9770000  66.6860000  36.8710000  37.1680000  65.5240000
  31.0000000  52.3800000  77.0870000  31.5720000  53.1200000  76.8800000
  31.6000000  51.6750000  77.3310000  80.1790000  60.8530000  83.8390000
  80.9660000  61.1300000  84.3080000  79.4640000  61.0110000  84.4560000
  31.0240000  59.6350000  58.3470000  31.1900000  60.3080000  57.6880000
  31.0000000  58.8150000  57.8520000  84.6710000  53.6860000  80.3210000
  85.2670000  54.4230000  80.1910000  83.8980000  53.9080000  79.8010000
  58.1440000  54.1200000  90.5330000  57.3070000  53.6890000  90.3610000
  58.1060000  54.9290000  90.0220000  45.2940000  70.2980000  81.4790000
  44.4680000  69.9760000  81.1190000  45.2790000  71.2400000  81.3110000
  31.2560000  69.2490000  96.4990000  31.0000000  68.3260000  96.4980000
  32.2140000  69.2310000  96.5000000  82.8600000  86.8920000  86.8170000
  82.1840000  86.3350000  87.2030000  82.6010000  86.9850000  85.9000000
  61.9990000  67.3080000  67.4540000  62.4560000  66.9570000  68.2190000
  62.1140000  66.6390000  66.7780000  40.7540000  81.6730000  82.6470000
  41.3440000  82.4230000  82.7140000  40.5620000  81.6030000  81.7120000
  53.0400000  71.2300000  79.4650000  53.9660000  71.3030000  79.6960000
  52.9960000  71.5240000  78.5550000  58.5990000  31.0380000  94.9370000
  59.3670000  31.1240000  95.5030000  57.8580000  31.0000000  95.5430000
  68.6800000  35.6200000  74.6120000  67.8290000  35.3460000  74.9530000
  68.6340000  36.5760000  74.5910000  33.1450000  80.8550000  71.9910000
  34.0600000  80.6120000  72.1340000  32.6700000  80.4290000  72.7050000
  69.4410000  46.2200000  62.0270000  68.8990000  46.6680000  61.3790000
  69.0620000  45.3420000  62.0920000  88.1640000  53.0680000  65.0480000
  87.7610000  53.8360000  65.4530000  88.9050000  53.4200000  64.5530000
  58.4380000  48.2360000  80.9300000  57.4910000  48.3750000  80.9110000
  58.5400000  47.2840000  80.9390000  68.6360000  60.0440000  72.4550000
  68.5660000  60.9890000  72.3210000  67.7460000  59.7170000  72.3200000
  86.4640000  64.2740000  74.0550000  85.5140000  64.2170000  73.9560000
  86.7610000  63.3640000  74.0410000  56.9430000  35.3640000  80.4110000
  56.2960000  34.7170000  80.6920000  56.5240000  35.8220000  79.6820000
  35.3020000  40.4970000  79.6450000  34.6910000  39.7610000  79.6800000
  36.1540000  40.1110000  79.8520000  57.0640000  47.1930000  61.0590000
  57.6160000  47.0040000  61.8170000  56.8740000  46.3350000  60.6800000
  64.7030000  41.3950000  71.3890000  63.7510000  41.3140000  71.3350000
  64.9100000  41.1880000  72.3000000  40.4810000  53.6940000  68.1690000
  39.7670000  53.0970000  68.3920000  40.2280000  54.5280000  68.5670000
  54.4460000  84.3460000  71.7050000  54.1560000  84.2600000  72.6120000
  53.6390000  84.3180000  71.1910000  71.3370000  57.6150000  88.8010000
  70.8630000  58.2360000  88.2470000  70.7430000  56.8680000  88.8850000
  43.3500000  61.4920000  85.9270000  43.0030000  60.6040000  86.0100000
  44.1100000  61.5080000  86.5090000  50.6890000  64.1080000  96.4360000
  50.4430000  64.1430000  95.5120000  51.2730000  63.3520000  96.5000000
  50.1050000  31.8940000  90.7340000  49.8970000  31.0000000  90.4640000
  50.5510000  32.2760000  89.9780000  42.7000000  75.7520000  88.0010000
  43.5330000  75.7380000  88.4720000  42.4590000  74.8290000  87.9140000
  41.6500000  49.2330000  84.4970000  41.8050000  48.4990000  83.9030000
  40.6980000  49.3340000  84.5090000  40.4840000  60.4330000  66.7820000
  39.7180000  60.8410000  67.1870000  41.1090000  61.1510000  66.6740000
  34.9350000  47.2010000  64.6380000  34.9470000  46.2840000  64.9120000
  35.8400000  47.3900000  64.3900000  48.0040000  40.7420000  72.0530000
  47.5840000  41.5670000  71.8070000  48.9090000  40.9830000  72.2500000
  43.6780000  52.8040000  78.2950000  43.8160000  53.6130000  78.7880000
  43.2070000  52.2310000  78.9010000  57.8930000  83.9310000  63.6440000
  58.7810000  83.5790000  63.5840000  58.0110000  84.8810000  63.6650000
  84.0460000  75.7840000  61.2980000  83.9000000  75.4370000  62.1780000
  84.5740000  75.1150000  60.8610000  55.1090000  82.5050000  69.9090000
  54.6900000  81.6730000  69.6910000  56.0070000  82.4120000  69.5890000
  88.9400000  79.6480000  62.4800000  89.0000000  80.2370000  61.7280000
  89.0000000  78.7700000  62.1030000  79.5300000  66.1480000  83.8700000
  79.7320000  65.2130000  83.8950000  80.3730000  66.5720000  83.7060000
  45.0430000  38.4600000  58.4620000  45.0770000  37.6760000  59.0100000
  44.1270000  38.5230000  58.1900000  40.0430000  53.1870000  65.7390000
  40.6120000  52.4180000  65.7400000  39.1550000  52.8290000  65.7390000
  52.1540000  38.6060000  58.5790000  52.9570000  38.1300000  58.7890000
  52.4350000  39.5160000  58.4780000  57.3610000  60.1000000  95.9140000
  56.8950000  59.5040000  96.5000000  57.8400000  60.6870000  96.5000000
  72.8840000  85.0130000  79.5500000  73.4670000  85.7390000  79.7740000
  72.8660000  84.4680000  80.3370000  31.5890000  63.9340000  84.7650000
  31.0000000  63.7280000  85.4900000  31.1100000  63.6580000  83.9820000
  73.5420000  79.9790000  74.7190000  72.8180000  79.4730000  75.0890000
  73.1430000  80.8060000  74.4480000  44.8790000  68.2520000  56.0150000
  44.0070000  67.8580000  56.0270000  44.7160000  69.1950000  56.0000000
  73.2650000  40.0740000  91.4510000  72.3290000  39.9000000  91.3560000
  73.5540000  40.3180000  90.5720000  67.9250000  37.9880000  70.6630000
  68.8550000  37.8980000  70.8710000  67.8770000  37.8460000  69.7170000
  55.2280000  73.0050000  58.3180000  54.3810000  72.5610000  58.2840000
  55.0090000  73.9310000  58.4300000  41.0120000  41.3360000  61.9320000
  41.7410000  40.7180000  61.9750000  41.4280000  42.1990000  61.9340000
  53.6220000  37.8930000  84.1460000  53.0530000  38.6020000  84.4440000
  54.4650000  38.3160000  83.9780000  82.7860000  84.8870000  61.1750000
  82.0100000  84.7220000  61.7110000  83.4430000  85.2020000  61.7960000
  55.5520000  31.0000000  85.0340000  54.8150000  31.1960000  85.6120000
  55.5910000  31.7460000  84.4340000  79.6880000  49.6550000  91.7360000
  79.5120000  50.5950000  91.6880000  80.5670000  49.5570000  91.3700000
  45.9800000  84.1210000  67.4270000  45.1950000  84.3870000  67.9050000
  45.7000000  83.3690000  66.9060000  48.7410000  64.1570000  74.3740000
  47.7870000  64.1720000  74.4560000  48.9840000  65.0730000  74.2390000
  73.1810000  86.4510000  65.2060000  72.7680000  85.7530000  65.7150000
  73.0740000  86.1780000  64.2940000  35.3070000  60.9950000  83.3420000
  36.1340000  60.5360000  83.2000000  35.3980000  61.8120000  82.8520000
  71.8020000  69.0520000  90.1440000  71.9180000  68.1880000  89.7490000
  70.8610000  69.2200000  90.0800000  66.4340000  83.6520000  62.3660000
  67.3540000  83.9120000  62.3980000  66.0940000  84.0650000  61.5720000
  75.9520000  35.2170000  82.3630000  76.1840000  36.0240000  82.8220000
  76.6970000  35.0470000  81.7850000  31.9920000  31.0000000  93.2090000
  31.1060000  31.2280000  92.9280000  32.5090000  31.0060000  92.4030000
  70.9150000  36.4900000  65.6340000  70.5340000  35.6320000  65.4470000
  70.6190000  36.6960000  66.5210000  84.2260000  51.1780000  58.2610000
  84.4390000  50.2450000  58.2560000  83.2690000  51.2050000  58.2800000
  48.6080000  43.6510000  68.3040000  47.7220000  43.5990000  68.6610000
  49.0050000  44.3970000  68.7560000  81.2600000  68.1070000  91.6900000
  80.3450000  68.3860000  91.6740000  81.2200000  67.1510000  91.6890000
  49.7090000  80.4170000  73.9460000  48.8260000  80.6430000  74.2390000
  49.6470000  79.4980000  73.6840000  87.5570000  84.3260000  68.0170000
  86.9270000  84.9850000  67.7270000  87.1730000  83.9610000  68.8140000
  31.1370000  61.0430000  67.8100000  31.2550000  60.5020000  68.5910000
  31.0000000  61.9280000  68.1500000  87.0820000  38.1490000  56.1150000
  87.9250000  37.7120000  56.0000000  87.0960000  38.4640000  57.0190000
  79.9370000  52.8930000  63.2370000  79.5530000  52.0330000  63.0650000
  80.8290000  52.7040000  63.5290000  61.6930000  38.9510000  85.0830000
  61.0950000  38.3450000  85.5200000  61.1780000  39.3220000  84.3660000
  47.8090000  38.0920000  70.7720000  48.4560000  38.7720000  70.5820000
  46.9630000  38.5220000  70.6420000  78.7030000  70.1950000  93.4640000
  78.4560000  69.4220000  92.9570000  79.4990000  70.5170000  93.0400000
  62.2400000  65.1750000  57.8900000  62.6050000  64.9770000  57.0280000
  62.5610000  66.0550000  58.0900000  42.5350000  58.9090000  62.5130000
  43.4570000  58.9110000  62.7680000  42.2780000  57.9870000  62.5490000
  55.3580000  76.6920000  92.9940000  56.0660000  77.2170000  92.6200000
  55.7370000  75.8200000  93.1040000  39.0770000  88.5070000  64.6560000
  38.6360000  89.0000000  63.9640000  38.8920000  89.0000000  65.4560000
  34.3520000  38.8320000  58.8260000  33.4260000  38.6040000  58.7510000
  34.3670000  39.7890000  58.7890000  79.6650000  83.6260000  80.6670000
  79.7300000  84.0660000  81.5150000  78.9080000  83.0460000  80.7550000
  88.2240000  89.0000000  82.3990000  89.0000000  88.5790000  82.0320000
  87.5490000  88.8870000  81.7300000  80.5260000  42.0650000  82.4220000
  79.8840000  42.0970000  81.7130000  80.5450000  41.1450000  82.6870000
  35.1750000  81.7870000  75.8750000  35.5350000  80.9220000  76.0700000
  34.7600000  81.6870000  75.0180000  75.4310000  81.1500000  58.4730000
  75.4900000  80.3050000  58.0270000  76.3360000  81.4570000  58.5290000
  83.6970000  54.7530000  95.2720000  83.5060000  53.9040000  94.8750000
  83.6770000  54.5880000  96.2150000  53.9780000  69.8990000  68.6380000
  54.7730000  70.3630000  68.8970000  53.2750000  70.3430000  69.1130000
  75.2940000  48.0990000  65.6870000  75.3610000  48.9340000  65.2240000
  75.9340000  47.5330000  65.2530000  32.1860000  57.0680000  56.0830000
  32.4610000  57.9810000  56.0000000  31.2300000  57.1010000  56.0470000
  52.2260000  31.0470000  70.7310000  52.0680000  31.0000000  69.7880000
  53.1790000  31.0040000  70.8170000  83.2820000  43.1100000  75.1520000
  82.4830000  43.6370000  75.1650000  82.9720000  42.2050000  75.1100000
  84.0270000  86.9440000  69.3490000  83.4790000  87.5080000  68.8040000
  84.6300000  86.5270000  68.7330000  67.7060000  35.3360000  72.2860000
  67.6190000  34.3870000  72.3690000  68.5500000  35.4630000  71.8520000
  77.8390000  36.7950000  63.3270000  78.5220000  37.4240000  63.0950000
  78.1360000  35.9680000  62.9460000  35.9610000  57.2210000  76.0610000
  35.8110000  56.2930000  75.8840000  36.2690000  57.5780000  75.2270000
  86.2380000  36.2840000  64.6590000  85.7500000  35.8600000  65.3640000
  85.6130000  36.3400000  63.9350000  61.8750000  47.7980000  85.5060000
  61.1720000  48.4450000  85.5530000  61.6900000  47.3000000  84.7090000
  65.9620000  82.7800000  75.1260000  66.7890000  83.2600000  75.1460000
  66.2190000  81.8590000  75.0850000  65.0400000  50.3230000  90.5780000
  64.3380000  49.7610000  90.9050000  65.0880000  51.0390000  91.2130000
  43.1280000  45.9200000  64.7580000  42.2870000  46.3780000  64.7550000
  42.8960000  44.9920000  64.7200000  35.8300000  40.4820000  61.0130000
  35.0970000  40.3050000  61.6020000  36.5170000  40.8280000  61.5830000
  88.8250000  62.5780000  76.1530000  87.9000000  62.6260000  76.3940000
  89.0000000  61.6420000  76.0580000  48.6910000  66.3130000  67.9740000
  48.4260000  65.5270000  68.4510000  48.1100000  66.3400000  67.2130000
  72.0250000  66.5620000  70.5200000  72.2610000  67.3120000  69.9740000
  72.2080000  66.8490000  71.4150000  66.9370000  66.8950000  87.2610000
  66.7570000  67.8340000  87.2220000  67.5940000  66.7490000  86.5800000
  58.1810000  58.0250000  63.3180000  57.8960000  58.9080000  63.0860000
  57.3700000  57.5560000  63.5190000  72.8600000  82.4870000  96.4270000
  73.7780000  82.7460000  96.5000000  72.8420000  81.8700000  95.6940000
  65.2660000  61.8280000  61.5860000  65.2670000  62.3620000  60.7920000
  64.5840000  62.2160000  62.1350000  31.9550000  43.0420000  66.4500000
  32.1620000  42.1090000  66.4040000  31.0000000  43.0720000  66.5180000
  76.9920000  56.8840000  61.2340000  76.2610000  57.4480000  60.9840000
  76.6170000  56.0040000  61.2660000  78.8450000  49.0080000  60.5680000
  79.0310000  48.1980000  61.0430000  78.6320000  49.6430000  61.2520000
  67.5770000  51.9710000  60.3230000  67.2670000  51.1350000  60.6700000
  67.6470000  51.8280000  59.3790000  54.9650000  74.7110000  90.2490000
  55.2390000  75.5250000  90.6720000  54.2570000  74.9720000  89.6610000
  71.1250000  71.3590000  67.0110000  71.7330000  72.0530000  66.7560000
  71.6270000  70.5500000  66.9060000  83.6040000  88.4110000  61.6840000
  82.8790000  89.0000000  61.8900000  84.3620000  88.9880000  61.5890000
  79.8650000  39.5490000  80.3170000  80.3350000  38.9570000  79.7300000
  79.2250000  38.9910000  80.7590000  41.9410000  77.0830000  56.9030000
  41.7190000  76.8570000  56.0000000  41.4390000  77.8780000  57.0820000
  57.9870000  41.7040000  66.2560000  57.1730000  41.7230000  66.7580000
  58.2410000  42.6240000  66.1750000  87.5000000  85.6240000  93.5500000
  88.4500000  85.7030000  93.4590000  87.1920000  86.5260000  93.6400000
  63.5810000  36.9490000  56.5040000  64.0040000  37.6560000  56.0180000
  62.7920000  36.7480000  56.0000000  83.8360000  75.1020000  58.2320000
  83.3870000  74.2770000  58.4150000  83.3610000  75.7530000  58.7500000
  69.7510000  56.2490000  83.1670000  69.0810000  55.7070000  82.7520000
  69.5570000  57.1390000  82.8710000  88.0760000  34.1720000  58.6650000
  88.9960000  33.9770000  58.4860000  87.5900000  33.5920000  58.0790000
  69.3210000  34.7980000  96.5000000  68.3990000  35.0550000  96.4960000
  69.6070000  34.9150000  95.5940000  55.1260000  39.1700000  67.6580000
  54.6770000  39.2250000  68.5020000  55.0710000  40.0550000  67.2990000
  75.6540000  63.4290000  63.2060000  76.5470000  63.7000000  63.4170000
  75.7550000  62.5710000  62.7920000  46.5680000  68.3240000  87.7570000
  45.7610000  68.8260000  87.8630000  47.2320000  68.9790000  87.5420000
  79.0760000  57.8720000  95.4110000  78.4280000  57.6630000  94.7390000
  79.9190000  57.6790000  95.0000000  55.0560000  88.0850000  59.1310000
  55.3860000  87.8420000  59.9960000  55.3160000  89.0000000  59.0240000
  74.9550000  45.9160000  76.9460000  74.3120000  45.3640000  77.3900000
  74.4480000  46.3960000  76.2910000  51.5590000  75.4640000  76.4190000
  50.6750000  75.0990000  76.4020000  51.8060000  75.5370000  75.4960000
  77.9520000  75.2230000  56.5010000  78.2850000  74.4790000  56.0000000
  78.2430000  75.9920000  56.0100000  31.6630000  53.8940000  68.5340000
  31.0010000  54.1610000  67.8970000  31.4750000  54.4210000  69.3110000
  82.9630000  62.8710000  77.6570000  82.3710000  62.5310000  76.9850000
  82.8840000  63.8220000  77.5880000  47.7070000  55.2350000  84.2200000
  47.9360000  55.8490000  84.9160000  48.3530000  55.3980000  83.5330000
  55.7040000  76.3550000  79.7330000  56.4150000  75.7230000  79.8330000
  56.0410000  77.1590000  80.1310000  49.4260000  34.9670000  84.4100000
  49.9750000  35.7470000  84.3400000  50.0470000  34.2420000  84.4810000
  56.4560000  71.3450000  56.1640000  56.5090000  71.2270000  57.1120000
  55.5360000  71.5560000  56.0000000  42.7470000  51.9070000  95.3400000
  43.2340000  51.9830000  96.1610000  43.2150000  52.4760000  94.7300000
  39.4830000  54.2500000  87.1160000  38.7370000  54.4200000  87.6910000
  39.1030000  54.1970000  86.2390000  44.3830000  43.5980000  56.0070000
  45.1340000  43.0050000  56.0180000  44.7680000  44.4740000  56.0000000
  59.7630000  47.1130000  58.5190000  58.8930000  47.1900000  58.9120000
  59.9760000  48.0010000  58.2330000  44.9240000  72.8660000  73.0340000
  43.9940000  72.7330000  72.8500000  45.2620000  71.9860000  73.2050000
  51.1710000  83.2050000  59.1970000  51.9820000  82.7100000  59.0880000
  51.4570000  84.1100000  59.3270000  38.2940000  55.6750000  83.8410000
  37.7470000  55.5250000  84.6120000  37.6780000  55.9340000  83.1560000
  34.1460000  33.7480000  71.1490000  34.5800000  33.3430000  70.3990000
  34.7800000  33.6730000  71.8630000  56.3380000  71.5110000  88.8610000
  56.4050000  71.1740000  87.9680000  56.1370000  72.4410000  88.7530000
  82.2920000  86.3360000  78.6410000  81.6860000  86.3660000  77.9020000
  83.1580000  86.2640000  78.2390000  45.4960000  56.0770000  58.8650000
  45.5010000  55.6840000  59.7380000  45.9570000  55.4440000  58.3140000
  31.9390000  71.8840000  59.1220000  32.3430000  71.9120000  59.9890000
  31.0000000  71.8150000  59.2970000  89.0000000  75.3280000  77.6040000
  88.9350000  74.4320000  77.9320000  88.5650000  75.3030000  76.7510000
  88.9840000  60.5680000  68.1530000  89.0000000  59.6170000  68.0440000
  88.9960000  60.9130000  67.2600000  64.9390000  53.6000000  58.3460000
  64.9170000  54.5530000  58.2700000  65.8700000  53.3840000  58.3990000
  38.3090000  79.3900000  83.5720000  38.7900000  79.9380000  82.9520000
  38.5370000  78.4930000  83.3260000  31.7710000  69.5150000  81.2220000
  31.0000000  68.9470000  81.2100000  32.3580000  69.1090000  81.8600000
  75.2250000  64.3520000  85.4770000  75.4660000  65.2780000  85.4700000
  74.8710000  64.2030000  86.3540000  75.0040000  86.1660000  72.6160000
  74.7320000  85.3490000  73.0350000  74.8640000  86.0140000  71.6810000
  64.8700000  38.7530000  76.0800000  65.4990000  38.0360000  76.1570000
  64.9550000  39.2360000  76.9020000  60.0340000  35.8680000  67.3010000
  59.8750000  34.9340000  67.4360000  60.7920000  35.9000000  66.7160000
  37.7570000  72.3520000  73.0330000  36.8310000  72.1490000  72.9030000
  37.9660000  71.9840000  73.8920000  56.0230000  36.9340000  62.1240000
  56.2430000  37.6310000  61.5070000  56.7230000  36.9600000  62.7770000
  70.0280000  31.0160000  82.2640000  69.8050000  31.9440000  82.3450000
  70.9850000  31.0000000  82.2540000  51.8390000  36.5650000  91.4650000
  52.4240000  36.0650000  90.8960000  51.0390000  36.0400000  91.5070000
  58.2210000  86.2830000  82.0430000  57.3620000  86.6880000  82.1620000
  58.8160000  86.8270000  82.5590000  59.0960000  70.1430000  79.0040000
  58.9790000  69.3080000  79.4550000  59.9550000  70.4530000  79.2920000
  78.2810000  44.5090000  96.4430000  77.3980000  44.1420000  96.4930000
  78.1500000  45.4560000  96.5000000  59.3480000  82.8680000  70.3400000
  60.3050000  82.8640000  70.3430000  59.1040000  81.9430000  70.3650000
  48.5980000  38.6780000  63.3070000  48.3910000  39.5110000  63.7300000
  47.7440000  38.3000000  63.0920000  70.8760000  31.0000000  78.7110000
  70.3150000  31.0310000  79.4850000  70.7800000  31.8640000  78.3100000
  70.3600000  78.9030000  81.5290000  70.2870000  77.9560000  81.6460000
  69.5950000  79.1400000  81.0040000  88.2130000  72.5940000  82.3230000
  88.7010000  71.7730000  82.3830000  88.8800000  73.2570000  82.1420000
  34.2120000  60.7280000  91.2530000  34.7370000  59.9850000  91.5500000
  34.6340000  61.4930000  91.6450000  73.5510000  35.8980000  83.6960000
  72.8090000  36.3940000  84.0410000  73.5450000  36.0800000  82.7560000
  66.4020000  66.4360000  78.8310000  65.4510000  66.5160000  78.9000000
  66.5520000  65.5100000  78.6400000  51.4670000  89.0000000  65.5510000
  51.5890000  88.9600000  64.6030000  52.3540000  88.9660000  65.9090000
  39.4450000  58.0310000  76.2100000  40.3710000  57.8840000  76.4000000
  39.1100000  57.1680000  75.9670000  35.2920000  77.0210000  62.7060000
  34.5510000  76.7510000  62.1630000  35.6900000  76.2000000  62.9950000
  85.9030000  47.3400000  60.9390000  85.3690000  46.5920000  60.6740000
  86.1670000  47.1410000  61.8380000  76.9820000  84.7640000  96.5000000
  77.4820000  84.9960000  95.7180000  76.0890000  85.0520000  96.3080000
  40.3960000  79.2750000  92.4820000  39.6760000  79.5990000  93.0230000
  40.6240000  78.4290000  92.8680000  36.9440000  61.9520000  85.0940000
  37.0240000  61.2870000  85.7780000  37.3410000  62.7360000  85.4740000
  56.0340000  72.3600000  82.4820000  56.8850000  72.5790000  82.8630000
  55.7950000  71.5290000  82.8930000  43.7660000  47.8060000  82.4960000
  44.5990000  48.1120000  82.1380000  43.2200000  47.6420000  81.7270000
  31.1320000  31.9510000  85.4010000  31.2110000  31.0000000  85.4710000
  32.0350000  32.2690000  85.4190000  79.2280000  40.9080000  91.8340000
  78.8940000  41.1410000  90.9680000  79.9600000  41.5080000  91.9780000
  48.0710000  67.3300000  72.8680000  48.8320000  66.8730000  72.5100000
  48.3950000  67.7450000  73.6680000  64.8790000  86.6450000  80.1870000
  64.0020000  86.7200000  80.5620000  65.3290000  87.4430000  80.4680000
  44.0790000  46.1440000  92.9180000  44.4800000  47.0050000  93.0350000
  43.1570000  46.3310000  92.7380000  60.8470000  42.4800000  92.9590000
  60.8420000  41.5450000  92.7580000  59.9850000  42.7900000  92.6790000
  87.2960000  36.2000000  67.4420000  87.2970000  37.0800000  67.0660000
  86.4040000  36.0790000  67.7670000  45.0360000  73.2800000  68.1910000
  45.8030000  73.7670000  68.4900000  44.6980000  73.7910000  67.4550000
  39.5380000  76.4860000  76.1560000  39.3690000  77.4080000  76.3480000
  38.6680000  76.0970000  76.0600000  83.1130000  43.9890000  62.1340000
  83.4820000  44.5600000  61.4610000  83.7130000  43.2440000  62.1730000
  33.6060000  54.4320000  75.5240000  34.0080000  54.8010000  74.7390000
  33.8970000  53.5190000  75.5360000  50.0110000  87.2860000  71.8880000
  50.0500000  87.9710000  72.5550000  50.2510000  86.4840000  72.3540000
  49.9280000  57.4810000  80.4920000  50.1240000  56.9840000  79.6980000
  50.0110000  58.3980000  80.2280000  85.3130000  79.1610000  80.4080000
  85.0510000  78.2410000  80.4340000  86.2650000  79.1430000  80.5090000
  63.8380000  42.6470000  56.7900000  63.9990000  43.3920000  57.3680000
  64.3420000  42.8430000  56.0000000  37.8000000  33.5200000  70.3210000
  37.1860000  33.2250000  69.6490000  37.2830000  33.5360000  71.1270000
  40.5790000  88.4080000  86.3510000  41.2700000  88.9800000  86.6820000
  39.8530000  89.0000000  86.1500000  61.9120000  37.6470000  62.8490000
  62.1940000  36.9990000  62.2030000  61.2770000  37.1820000  63.3940000
  85.1040000  38.8400000  79.9700000  85.2050000  37.9490000  80.3030000
  85.0500000  39.3860000  80.7550000  68.1770000  70.2060000  96.1150000
  67.8860000  69.3800000  96.5000000  69.1150000  70.2420000  96.3030000
  85.7340000  32.1800000  56.0070000  85.9140000  31.2400000  56.0190000
  86.5990000  32.5900000  56.0040000  86.2340000  48.3240000  95.9470000
  86.5130000  47.5940000  96.5000000  86.3390000  49.0980000  96.5000000
  46.9310000  34.3950000  75.9550000  47.0350000  33.4610000  76.1310000
  46.6320000  34.7640000  76.7860000  63.0580000  74.2110000  74.7500000
  63.9210000  73.9950000  75.1030000  62.5350000  74.4370000  75.5200000
  75.6370000  47.6850000  69.0980000  74.7790000  47.4260000  69.4330000
  75.8030000  48.5380000  69.5000000  59.7900000  36.5350000  94.0750000
  60.2930000  37.3020000  94.3500000  59.7000000  36.6330000  93.1270000
  43.5390000  34.6380000  78.6930000  43.7700000  33.7340000  78.9050000
  42.6140000  34.7120000  78.9280000  70.6040000  89.0000000  86.2060000
  71.3340000  88.4010000  86.3620000  70.0160000  88.8600000  86.9480000
  54.3180000  40.6880000  84.9920000  54.8770000  40.8730000  84.2380000
  54.2540000  41.5240000  85.4550000  40.9410000  57.0930000  87.3430000
  40.1530000  56.7280000  87.7460000  41.0340000  57.9590000  87.7400000
  49.3560000  45.1920000  76.7550000  49.5740000  44.4330000  76.2130000
  50.1500000  45.7260000  76.7500000  31.8860000  88.7420000  66.1940000
  32.5110000  89.0000000  65.5160000  32.4280000  88.3670000  66.8890000
  80.3740000  34.8970000  90.4840000  80.8420000  35.6460000  90.8540000
  80.6190000  34.8940000  89.5590000  42.9960000  64.5400000  66.7820000
  43.4680000  65.0450000  67.4440000  43.1890000  63.6270000  66.9930000
  89.0000000  62.1800000  95.9430000  88.6940000  62.8950000  96.5000000
  88.9480000  61.4030000  96.5000000  44.6780000  34.4690000  95.9500000
  45.4540000  34.5730000  96.5000000  44.0620000  33.9780000  96.4940000
  40.0280000  73.0810000  65.0450000  39.9660000  73.4610000  65.9210000
  40.8730000  72.6310000  65.0370000  86.2870000  76.0410000  73.3130000
  85.3550000  76.2560000  73.3620000  86.3110000  75.0850000  73.2740000
  59.1030000  37.0120000  76.9150000  59.3450000  36.9290000  75.9930000
  59.0840000  36.1110000  77.2400000  88.0630000  82.4690000  56.0390000
  88.9850000  82.7250000  56.0000000  87.5840000  83.2980000  56.0280000
  35.4290000  61.3280000  74.3910000  35.9050000  62.1180000  74.6420000
  34.7550000  61.2280000  75.0640000  56.9170000  76.6010000  66.2330000
  57.3450000  76.4470000  65.3910000  56.4330000  75.7930000  66.4070000
  68.9250000  68.4300000  74.7650000  69.2890000  69.3000000  74.6070000
  69.2410000  68.1920000  75.6370000  71.9500000  57.3150000  72.2220000
  71.2690000  57.9610000  72.0320000  72.6530000  57.5200000  71.6050000
  70.3910000  61.7530000  85.4240000  70.5870000  60.8230000  85.3130000
  69.4610000  61.8290000  85.2100000  58.6920000  85.0900000  78.4400000
  58.7680000  86.0100000  78.6910000  58.0640000  84.7230000  79.0630000
  60.2330000  45.2710000  71.8610000  59.3610000  44.9910000  71.5810000
  60.1620000  45.3590000  72.8120000  37.2010000  34.8500000  83.1970000
  37.1700000  34.8330000  82.2400000  36.3770000  35.2640000  83.4560000
  31.9860000  75.6980000  69.3830000  32.7880000  76.0040000  69.8060000
  31.9000000  76.2480000  68.6040000  81.0390000  60.8540000  68.0520000
  81.8420000  60.3440000  67.9550000  80.8670000  60.8540000  68.9950000
  31.5230000  47.1030000  62.1050000  31.0220000  46.5970000  62.7450000
  31.0020000  47.0570000  61.3030000  78.6220000  71.7540000  63.9600000
  79.2370000  71.9170000  64.6750000  77.7750000  72.0390000  64.3030000
  31.0130000  65.7450000  95.9850000  31.0000000  65.4500000  95.0750000
  31.0070000  64.9380000  96.5000000  36.6200000  39.2050000  93.3150000
  36.5600000  39.5760000  92.4350000  35.8970000  38.5790000  93.3600000
  73.5660000  42.0940000  56.4310000  74.2830000  41.6290000  56.0000000
  73.9060000  42.3060000  57.3010000  88.4250000  56.8200000  59.6740000
  89.0000000  57.2060000  60.3350000  89.0000000  56.2570000  59.1550000
  65.4120000  47.6050000  95.2070000  65.1750000  46.6780000  95.2210000
  64.5740000  48.0680000  95.2000000  62.0680000  46.9880000  81.8870000
  62.7070000  47.4550000  82.4260000  61.2180000  47.2980000  82.2010000
  56.6120000  36.2130000  90.8880000  56.3100000  36.0120000  90.0020000
  56.6940000  37.1660000  90.9040000  43.9700000  68.9800000  77.7360000
  43.4810000  68.4720000  78.3820000  43.6090000  69.8640000  77.8010000
  40.0650000  59.5870000  91.7560000  39.6100000  60.3500000  92.1100000
  40.9260000  59.6050000  92.1740000  89.0000000  34.6680000  56.0460000
  88.0810000  34.9350000  56.0280000  88.9730000  33.7120000  56.0000000
  68.1250000  81.4500000  80.3870000  68.3580000  82.3630000  80.5570000
  67.6790000  81.1640000  81.1850000  70.4310000  73.7300000  86.2430000
  69.5740000  74.1530000  86.1940000  70.8130000  73.8610000  85.3750000
  86.1370000  88.2850000  73.0690000  86.8460000  88.9270000  73.1130000
  86.5670000  87.4420000  73.2150000  35.7080000  88.3650000  65.7650000
  36.3940000  89.0000000  65.5600000  34.9950000  88.8920000  66.1290000
  71.8740000  68.1880000  79.1780000  71.7880000  69.0390000  79.6080000
  72.7250000  67.8580000  79.4670000  33.9300000  59.8360000  59.5600000
  33.5690000  60.6960000  59.7730000  34.8680000  59.9910000  59.4430000
  89.0000000  47.3100000  61.6180000  88.6320000  47.0180000  62.4510000
  88.4460000  48.0460000  61.3550000  47.3630000  85.9710000  56.0000000
  47.6940000  86.8690000  56.0020000  48.1490000  85.4250000  56.0010000
  36.2180000  63.8400000  72.2850000  35.8430000  64.3170000  71.5440000
  36.9720000  64.3660000  72.5520000  83.5780000  88.3960000  90.0830000
  83.9070000  89.0010000  90.7480000  82.7390000  88.7700000  89.8130000
  37.7410000  81.1070000  93.9490000  38.2470000  81.6280000  93.3250000
  37.9300000  81.5020000  94.8000000  56.7280000  58.8470000  91.9840000
  55.9620000  58.6910000  91.4330000  56.8150000  59.8000000  92.0110000
  49.2220000  75.6190000  91.9640000  49.0460000  74.8470000  91.4270000
  50.1750000  75.7090000  91.9510000  56.0800000  80.1610000  86.2330000
  56.3540000  80.8310000  86.8590000  56.6160000  80.3250000  85.4560000
  67.2400000  36.5260000  80.3310000  68.1730000  36.7350000  80.3500000
  67.1880000  35.7070000  79.8390000  49.8340000  44.1420000  72.4980000
  49.6560000  45.0800000  72.4380000  49.3170000  43.8460000  73.2470000
  62.8980000  78.4020000  63.0960000  62.4530000  79.1970000  62.8020000
  63.6460000  78.7190000  63.6030000  42.1500000  89.0000000  75.2730000
  42.4580000  88.1320000  75.5340000  41.6970000  88.8540000  74.4420000
  86.1960000  55.1450000  95.7640000  86.1620000  54.5070000  96.4770000
  86.1750000  54.6140000  94.9660000  53.8980000  59.9560000  83.9790000
  54.8100000  59.9170000  83.6930000  53.3910000  59.7630000  83.1900000
  74.3030000  37.9310000  71.4460000  74.2450000  37.0090000  71.1940000
  74.8930000  37.9370000  72.2010000  46.3830000  78.2240000  83.7680000
  46.3210000  78.2500000  84.7230000  45.5010000  78.4390000  83.4640000
  76.2170000  76.9820000  74.0050000  76.1600000  76.1260000  73.5800000
  75.6880000  76.8910000  74.7980000  73.6010000  64.6760000  96.4970000
  72.7580000  64.2240000  96.4740000  74.2510000  63.9730000  96.4830000
  53.9660000  59.9520000  56.0000000  53.6270000  60.7160000  56.4660000
  54.5510000  59.5270000  56.6280000  54.0230000  36.7260000  65.1310000
  54.4420000  36.1310000  64.5090000  54.4110000  36.5010000  65.9770000
  51.4030000  66.7270000  93.8520000  52.2170000  67.1200000  94.1640000
  51.0840000  67.3350000  93.1840000  48.4290000  83.7630000  59.7110000
  49.0860000  84.3530000  60.0800000  48.7310000  83.5970000  58.8180000
  40.7040000  76.7330000  66.2670000  39.7540000  76.8270000  66.3420000
  40.8460000  75.7910000  66.1750000  56.7560000  79.3920000  64.3320000
  56.8660000  78.5030000  63.9970000  56.9270000  79.3180000  65.2710000
  39.2600000  35.4700000  61.9040000  39.8970000  34.7560000  61.8930000
  38.4080000  35.0310000  61.9130000  31.0060000  88.3390000  78.2790000
  31.4400000  87.4860000  78.2750000  31.7230000  88.9740000  78.2850000
  67.2190000  63.8860000  61.1400000  67.9890000  64.4250000  61.3210000
  66.5290000  64.5160000  60.9280000  47.6570000  67.0520000  84.8490000
  46.9520000  66.8710000  84.2280000  48.4600000  66.8810000  84.3570000
  75.5940000  49.9050000  84.0180000  76.3510000  49.8590000  84.6010000
  75.9210000  49.5870000  83.1750000  85.8280000  40.1930000  93.8900000
  85.0210000  39.6790000  93.8770000  85.5890000  41.0040000  94.3400000
  40.1410000  75.4640000  68.6830000  40.9140000  75.8960000  69.0470000
  40.4150000  74.5560000  68.5490000  87.6010000  58.6200000  96.5000000
  86.9970000  57.8780000  96.4960000  87.0330000  59.3920000  96.4910000
  36.1110000  57.9900000  88.8930000  35.8720000  58.2950000  89.7680000
  35.4470000  57.3340000  88.6790000  56.3520000  87.3150000  62.2410000
  57.1680000  86.9900000  62.6200000  55.6670000  86.8010000  62.6680000
  81.4490000  79.4530000  90.0890000  80.9000000  79.8740000  89.4270000
  80.8310000  79.1430000  90.7510000  57.8340000  48.5660000  85.9460000
  57.3720000  47.7540000  85.7420000  58.6730000  48.4860000  85.4920000
  66.4350000  63.5780000  92.4320000  66.7620000  64.0170000  91.6470000
  65.4930000  63.4900000  92.2830000  33.1200000  59.2370000  66.0980000
  33.1060000  59.9970000  66.6800000  33.7680000  59.4580000  65.4300000
  83.1040000  76.4660000  78.2720000  82.3610000  76.8970000  77.8500000
  82.7270000  75.6850000  78.6800000  86.6010000  45.7630000  90.9980000
  86.0670000  46.5540000  91.0700000  86.2670000  45.3190000  90.2180000
  41.2910000  32.7320000  70.9570000  40.4960000  32.9540000  71.4410000
  41.1290000  31.8500000  70.6200000  31.0020000  60.9090000  64.0920000
  31.1750000  61.1340000  65.0060000  31.0000000  61.7490000  63.6340000
  31.7100000  54.5470000  62.6170000  32.3530000  55.2100000  62.3650000
  31.0000000  55.0430000  63.0240000  40.6390000  66.7960000  68.3340000
  41.1970000  66.4810000  67.6240000  40.9770000  66.3610000  69.1170000
  45.8510000  88.4370000  61.9300000  44.9700000  88.3260000  61.5740000
  46.3540000  88.8210000  61.2110000  44.4250000  88.4230000  94.2670000
  44.9800000  88.9640000  93.7050000  43.6970000  88.9960000  94.5080000
  50.4780000  85.8940000  67.0430000  50.6000000  84.9450000  67.0750000
  51.3480000  86.2540000  67.2190000  86.5240000  65.8780000  58.9850000
  86.7790000  66.5920000  58.4010000  86.5360000  65.0980000  58.4300000
  80.3300000  88.4040000  83.4750000  80.2350000  88.9810000  82.7170000
  80.2970000  88.9920000  84.2300000  85.5880000  43.9220000  56.0240000
  85.3070000  43.8540000  56.9360000  86.4370000  43.4780000  56.0000000
  35.8710000  65.2310000  80.7500000  35.3800000  64.5720000  81.2400000
  36.5100000  65.5700000  81.3780000  51.1140000  70.2290000  94.2060000
  50.9730000  69.4200000  94.6980000  52.0230000  70.4660000  94.3910000
  75.3920000  31.9540000  93.5320000  75.4420000  31.0000000  93.5920000
  76.1180000  32.2670000  94.0720000  39.8400000  63.0130000  68.4190000
  39.7160000  63.5740000  69.1840000  40.7720000  63.0930000  68.2110000
  57.5630000  87.6660000  58.3090000  58.3590000  88.1740000  58.1580000
  57.8770000  86.8060000  58.5920000  55.2930000  39.9910000  64.3380000
  54.4280000  39.6060000  64.4720000  55.7000000  39.4400000  63.6680000
  51.6610000  43.3420000  94.1640000  51.2440000  42.7430000  93.5450000
  52.3960000  43.7160000  93.6770000  71.8180000  52.5160000  68.8620000
  72.4920000  51.8370000  68.8800000  71.3870000  52.4040000  68.0140000
  36.3150000  63.9240000  66.4250000  35.7640000  64.7040000  66.3660000
  35.6960000  63.1970000  66.4890000  74.2840000  57.3800000  68.3990000
  73.6830000  56.8230000  67.9030000  75.0830000  57.3990000  67.8720000
  88.0570000  59.2930000  58.5180000  89.0000000  59.3820000  58.6520000
  87.6690000  59.5670000  59.3500000  61.5930000  33.5690000  60.2170000
  61.8210000  33.9780000  61.0520000  60.6370000  33.5260000  60.2230000
  67.9960000  60.7580000  68.1690000  68.6320000  60.9470000  68.8590000
  68.1760000  61.4080000  67.4910000  63.4670000  38.6850000  71.9850000
  63.2960000  37.7480000  71.8900000  64.4210000  38.7510000  72.0370000
  81.3340000  39.3290000  90.9160000  80.9110000  39.6460000  90.1180000
  81.1050000  38.4000000  90.9560000  58.1940000  81.3860000  82.6490000
  58.8610000  80.8520000  82.2170000  57.6800000  80.7600000  83.1600000
  40.4310000  85.3940000  92.1590000  41.0590000  86.1030000  92.0250000
  39.5830000  85.8330000  92.2250000  73.5450000  48.1070000  63.2760000
  74.4310000  48.3040000  62.9710000  73.6230000  47.2550000  63.7060000
  34.0040000  64.4690000  68.9910000  34.9100000  64.3830000  68.6940000
  34.0020000  64.0850000  69.8690000  46.4060000  59.0580000  91.2440000
  46.0470000  59.9040000  91.5090000  47.3550000  59.1750000  91.2900000
  52.4180000  80.8780000  60.7340000  52.1650000  81.3830000  61.5070000
  53.3150000  81.1580000  60.5480000  82.6170000  40.6080000  80.8020000
  83.3390000  41.2020000  80.5990000  81.8320000  41.0790000  80.5220000
  59.4070000  59.7320000  86.4210000  59.8380000  60.5860000  86.4390000
  58.7330000  59.7890000  87.1000000  41.2090000  40.7250000  73.5300000
  40.7740000  41.3900000  74.0630000  40.4950000  40.2810000  73.0710000
  35.5480000  37.1060000  96.5000000  36.3190000  37.6580000  96.3700000
  35.8510000  36.2200000  96.3030000  41.2220000  74.3230000  71.4110000
  41.7190000  73.9670000  70.6750000  40.3440000  74.4730000  71.0580000
  40.7930000  80.8120000  85.6230000  40.1890000  80.9630000  86.3510000
  40.2380000  80.4810000  84.9160000  84.6560000  33.7210000  72.3920000
  84.5940000  33.1060000  71.6620000  84.4840000  33.1880000  73.1690000
  81.8070000  86.7030000  70.4800000  81.2490000  87.1370000  71.1240000
  81.2130000  86.4670000  69.7670000  85.9300000  80.8080000  86.2530000
  86.4580000  80.1490000  86.7020000  86.5630000  81.4620000  85.9560000
  31.2100000  75.3020000  74.8580000  31.1640000  75.0820000  73.9280000
  31.0000000  76.2350000  74.8950000  85.2740000  73.6030000  63.1780000
  84.7620000  73.1820000  63.8680000  84.9950000  73.1680000  62.3720000
  57.1700000  77.3550000  77.6970000  56.3610000  77.8660000  77.7010000
  56.9390000  76.5440000  77.2430000  73.0120000  61.8790000  90.8540000
  72.0910000  61.6450000  90.7450000  73.2660000  61.4770000  91.6850000
  86.3900000  36.6790000  60.0500000  86.9270000  35.8880000  60.0750000
  86.9310000  37.3220000  59.5910000  39.3570000  35.1930000  80.3840000
  40.1370000  34.6790000  80.5910000  39.6500000  36.1030000  80.4330000
  77.3180000  52.6300000  92.8240000  77.6920000  51.8550000  93.2440000
  76.5730000  52.8660000  93.3760000  68.8010000  51.3300000  73.4600000
  67.8550000  51.3370000  73.6080000  69.0510000  52.2550000  73.4640000
  34.9990000  78.7080000  96.3920000  34.5360000  77.8750000  96.4830000
  35.9260000  78.4690000  96.4030000  58.4960000  50.2150000  92.8170000
  59.0890000  49.4990000  92.5900000  57.7530000  49.7860000  93.2430000
  74.5600000  31.3560000  75.2570000  74.1670000  31.0000000  74.4600000
  74.0180000  31.0110000  75.9670000  67.7970000  61.8550000  79.6490000
  67.3680000  61.0600000  79.3350000  67.9180000  61.7080000  80.5880000
  69.2630000  54.4170000  88.7890000  69.9680000  54.5720000  88.1610000
  68.9100000  53.5600000  88.5460000  33.6740000  31.9690000  94.7860000
  34.0720000  31.1200000  94.5920000  33.9380000  32.5300000  94.0560000
  72.1540000  33.2170000  63.3960000  72.2850000  32.9180000  62.4970000
  73.0100000  33.1080000  63.8120000  59.3860000  83.7640000  80.9570000
  58.5780000  83.8020000  81.4690000  59.3210000  82.9420000  80.4690000
  41.1010000  44.3060000  75.2710000  41.1090000  45.2620000  75.3230000
  40.5240000  44.1110000  74.5320000  71.2880000  63.8190000  60.7040000
  71.8990000  64.5530000  60.6440000  70.4320000  64.2300000  60.8270000
  55.0290000  88.6010000  86.9160000  55.6600000  89.0000000  87.5140000
  54.6860000  87.8470000  87.3960000  78.5620000  50.1670000  78.2800000
  78.0610000  50.8370000  78.7450000  78.0980000  49.3490000  78.4630000
  67.2410000  48.8790000  84.6700000  66.3040000  48.7940000  84.8430000
  67.4100000  49.8200000  84.7200000  44.8590000  42.3100000  66.0600000
  45.5650000  42.5450000  66.6620000  44.5260000  41.4770000  66.3940000
  40.0350000  58.4240000  84.7080000  40.8050000  58.6490000  85.2300000
  39.7960000  57.5430000  84.9990000  70.6760000  65.2830000  66.1310000
  71.2830000  65.6560000  65.4920000  71.0380000  64.4200000  66.3300000
  88.4250000  40.0490000  79.8690000  89.0000000  39.4100000  80.2890000
  89.0000000  40.7830000  79.6510000  61.1120000  42.0350000  57.9780000
  61.9980000  41.8160000  58.2640000  60.8810000  42.8120000  58.4870000
  64.3810000  70.9330000  93.4210000  64.7370000  70.0460000  93.4470000
  64.5870000  71.2490000  92.5410000  34.6720000  73.4050000  72.9950000
  34.3010000  73.6060000  72.1360000  33.9760000  73.6260000  73.6140000
  42.2650000  67.5360000  73.8440000  42.4300000  66.9000000  73.1480000
  42.5940000  67.1130000  74.6380000  51.8640000  81.7810000  84.0450000
  51.3570000  82.0980000  84.7930000  52.7520000  82.1050000  84.2030000
  74.2580000  45.7470000  61.6720000  75.0190000  45.4630000  61.1670000
  73.8970000  46.4790000  61.1720000  64.2170000  88.2510000  88.6530000
  64.7450000  87.5030000  88.3760000  64.8100000  89.0000000  88.5930000
  59.8580000  62.7230000  68.3220000  59.8900000  62.2380000  69.1460000
  60.2360000  63.5780000  68.5310000  33.6780000  61.0810000  77.3240000
  34.4700000  60.9230000  77.8370000  33.1220000  61.6100000  77.8970000
  84.8870000  70.3530000  74.2010000  85.7600000  69.9600000  74.1850000
  84.2880000  69.6070000  74.1980000  69.0680000  76.1280000  90.7940000
  68.5400000  76.6520000  91.3970000  69.1690000  75.2840000  91.2350000
  66.8050000  54.3720000  60.4960000  66.4850000  55.2700000  60.4110000
  67.7590000  54.4570000  60.5120000  43.0130000  89.0000000  92.1040000
  43.0150000  88.9570000  91.1480000  42.0980000  88.8560000  92.3480000
  77.5260000  53.0310000  68.8830000  76.8340000  53.5990000  69.2200000
  78.1100000  53.6220000  68.4060000  75.7400000  61.7590000  56.0000000
  74.8740000  62.1610000  56.0720000  76.1490000  61.9160000  56.8510000
  40.8640000  69.9240000  76.3570000  41.7580000  69.6670000  76.1320000
  40.3930000  69.0950000  76.4530000  83.3860000  46.3550000  88.6540000
  84.3180000  46.1380000  88.6270000  83.3620000  47.2810000  88.8960000
  77.8980000  37.4840000  91.4220000  76.9500000  37.6120000  91.4290000
  78.2600000  38.3660000  91.5090000  32.9620000  77.0760000  76.1960000
  33.1860000  76.1470000  76.1350000  33.7930000  77.5110000  76.3910000
  35.5940000  36.9770000  90.4780000  36.2880000  36.4000000  90.1620000
  36.0540000  37.7510000  90.8030000  42.1040000  54.7800000  84.9960000
  41.3690000  55.3170000  85.2910000  41.8510000  53.8840000  85.2200000
  74.6360000  69.4660000  87.3450000  75.3290000  69.6970000  87.9640000
  74.6890000  68.5130000  87.2690000  31.0000000  34.5110000  83.8810000
  31.2600000  33.6730000  83.5000000  31.5470000  34.6010000  84.6610000
  85.7830000  35.3100000  96.4660000  86.7220000  35.4930000  96.4830000
  85.3700000  36.1730000  96.5000000  88.4160000  76.5650000  96.4180000
  89.0000000  77.3230000  96.4380000  89.0000000  75.8110000  96.5000000
  56.8920000  58.8650000  73.5190000  57.0190000  58.2850000  74.2690000
  56.7770000  59.7340000  73.9050000  77.3360000  41.0810000  82.9740000
  77.6440000  41.9870000  82.9770000  78.1150000  40.5640000  82.7670000
  57.0060000  58.7560000  84.9600000  57.1010000  59.6750000  85.2090000
  57.7230000  58.5990000  84.3450000  64.1120000  69.7430000  60.8520000
  64.4340000  70.6430000  60.8860000  64.8940000  69.2150000  60.6870000
  61.1140000  56.1520000  82.9250000  60.4110000  56.2840000  83.5610000
  61.1800000  55.2010000  82.8340000  65.1720000  76.2850000  61.6190000
  64.5030000  76.7550000  62.1170000  64.7940000  75.4170000  61.4700000
  46.7240000  33.0710000  89.6720000  46.4880000  32.1510000  89.5480000
  47.6810000  33.0700000  89.7070000  87.2820000  56.3450000  73.9680000
  87.9750000  56.7160000  73.4220000  87.0460000  55.5260000  73.5310000
  32.5150000  65.4520000  81.5250000  33.0210000  66.0020000  82.1230000
  32.0020000  66.0710000  81.0050000  80.5110000  77.1830000  57.9680000
  80.6350000  77.6550000  57.1450000  79.6180000  76.8430000  57.9180000
  68.9150000  63.5250000  93.9080000  68.1120000  63.8560000  94.3100000
  68.8600000  63.8070000  92.9950000  55.4560000  84.1980000  64.9580000
  55.1910000  84.8320000  64.2920000  56.1320000  84.6490000  65.4630000
  82.3810000  44.1200000  65.0770000  81.5170000  44.5270000  65.0150000
  82.2020000  43.1800000  65.1180000  55.1070000  46.2920000  72.5370000
  54.6320000  46.4440000  71.7200000  55.0910000  47.1390000  72.9840000
  84.5300000  46.6950000  94.0060000  84.3780000  47.5890000  94.3120000
  83.6660000  46.2830000  94.0290000  43.3080000  50.8840000  89.3190000
  42.6130000  51.5400000  89.3700000  43.2510000  50.5420000  88.4270000
  79.8250000  45.0690000  76.4950000  79.4880000  45.9510000  76.3390000
  80.7300000  45.0990000  76.1850000  56.7480000  89.0000000  64.0450000
  56.9630000  89.0000000  64.9780000  55.7910000  88.9830000  64.0200000
  32.3330000  82.8380000  66.0800000  32.7710000  83.5330000  66.5700000
  31.4360000  82.8370000  66.4140000  48.2910000  77.4560000  64.7430000
  48.7670000  78.2590000  64.9570000  47.9420000  77.6120000  63.8660000
  61.2660000  53.4030000  80.1430000  60.8740000  52.5560000  79.9340000
  60.7210000  53.7520000  80.8490000  34.1100000  85.6260000  65.0780000
  33.4860000  86.2890000  65.3730000  34.8740000  85.7480000  65.6430000
  66.9800000  89.0000000  77.1780000  67.0000000  88.8940000  78.1290000
  66.9220000  88.1070000  76.8380000  47.2320000  60.1970000  88.3130000
  48.1650000  60.3810000  88.4230000  46.9070000  60.9200000  87.7750000
  41.0340000  72.1880000  56.0020000  41.9290000  71.8490000  56.0000000
  40.7070000  71.9960000  56.8810000  47.1700000  84.0440000  62.8860000
  47.9050000  84.6520000  62.9530000  46.8910000  84.1030000  61.9720000
  67.5760000  50.3420000  56.4990000  67.8890000  50.3150000  57.4030000
  68.3150000  50.6910000  56.0000000  64.7270000  55.8950000  88.0940000
  63.8730000  56.3190000  88.1710000  65.2010000  56.1650000  88.8800000
  48.3680000  68.7890000  56.0000000  48.6800000  68.0280000  56.4900000
  48.8950000  69.5180000  56.3280000  78.5690000  31.0000000  65.8400000
  78.1230000  31.3920000  65.0890000  79.4950000  31.0000000  65.5960000
  47.1620000  31.1600000  74.6010000  47.0490000  31.0000000  75.5370000
  46.2960000  31.0040000  74.2240000  51.0670000  38.6940000  79.9840000
  50.9840000  37.7540000  79.8230000  51.9710000  38.8090000  80.2780000
  65.7040000  74.9780000  79.1610000  66.5060000  75.4790000  79.0190000
  65.0700000  75.6240000  79.4730000  75.7150000  73.7930000  74.7800000
  75.0100000  73.2110000  75.0620000  75.7700000  74.4550000  75.4700000
  51.0430000  48.3620000  94.0840000  50.1970000  47.9550000  93.8980000
  51.6410000  47.9750000  93.4450000  79.3310000  66.1670000  71.6870000
  79.3600000  66.7560000  72.4410000  79.9010000  65.4370000  71.9310000
  67.5120000  77.9650000  56.0020000  68.3540000  78.4190000  56.0080000
  66.8600000  78.6660000  56.0000000  45.6340000  75.8370000  56.2320000
  46.1650000  76.5970000  56.0000000  46.2380000  75.0960000  56.1780000
  60.8010000  75.0280000  68.1250000  61.4330000  74.7770000  68.7990000
  60.3900000  75.8230000  68.4650000  76.7090000  84.7540000  83.0400000
  77.2240000  84.6920000  83.8440000  76.9380000  83.9650000  82.5470000
  67.7290000  31.1240000  87.8480000  67.9200000  31.0000000  88.7770000
  66.7770000  31.0360000  87.7850000  85.9830000  65.1180000  82.0950000
  86.0940000  66.0490000  82.2860000  86.8740000  64.7920000  81.9620000
  84.4050000  38.4350000  65.5740000  84.3120000  38.3600000  64.6250000
  85.3500000  38.4740000  65.7200000  37.0540000  70.9960000  90.8840000
  37.7600000  70.8380000  91.5100000  36.6650000  71.8250000  91.1640000
  31.0200000  84.9380000  76.8360000  31.1220000  84.6090000  75.9430000
  31.0020000  84.1510000  77.3810000  56.5960000  73.5980000  73.4550000
  57.4280000  73.2690000  73.1160000  55.9950000  73.5440000  72.7110000
  53.9600000  57.5890000  63.8770000  53.9060000  58.5270000  63.6920000
  54.8870000  57.3750000  63.7630000  72.9390000  65.4440000  89.7610000
  73.3460000  65.1120000  88.9620000  72.6100000  64.6630000  90.2060000
  62.2450000  86.2400000  83.8530000  61.3870000  86.4190000  84.2380000
  62.1750000  86.5620000  82.9540000  41.9160000  32.0390000  96.2590000
  41.7740000  31.1830000  95.8550000  42.2070000  32.5990000  95.5390000
  74.1860000  56.4250000  65.1150000  73.9360000  57.3390000  65.2470000
  73.3740000  55.9890000  64.8540000  46.9750000  78.6380000  58.3810000
  46.8400000  79.4510000  57.8950000  46.3120000  78.0400000  58.0370000
  37.4190000  57.7610000  56.0080000  36.5620000  58.1870000  56.0170000
  37.2210000  56.8240000  56.0000000  35.5820000  53.5950000  58.7550000
  36.3320000  53.0180000  58.6130000  34.9830000  53.3920000  58.0360000
  73.8510000  36.7680000  90.2650000  73.1700000  36.6030000  90.9160000
  74.6540000  36.8660000  90.7770000  68.3540000  70.4050000  87.8080000
  68.8130000  69.7560000  87.2750000  68.7760000  70.3520000  88.6660000
  58.3950000  39.3600000  96.4870000  58.2630000  39.7110000  95.6070000
  57.8890000  38.5470000  96.5000000  89.0000000  55.0950000  75.2990000
  88.9520000  54.8250000  76.2150000  88.9560000  54.2760000  74.8040000
  81.6510000  75.4400000  56.5850000  82.4040000  75.5230000  56.0000000
  80.9100000  75.2790000  56.0000000  80.0370000  49.6260000  58.0240000
  79.6680000  48.7480000  57.9290000  79.3050000  50.2160000  57.8420000
  89.0000000  88.8760000  92.2970000  89.0010000  89.0010000  91.3480000
  88.8770000  87.9340000  92.4150000  48.5450000  82.3280000  93.9570000
  47.9060000  83.0200000  93.7950000  48.0180000  81.5380000  94.0790000
  51.3350000  72.4860000  91.9310000  51.6920000  72.3760000  92.8120000
  50.3860000  72.4990000  92.0570000  80.6760000  80.1380000  86.8360000
  81.3140000  79.4290000  86.9140000  79.9250000  79.7390000  86.3960000
  31.7550000  31.5880000  56.0000000  32.5140000  31.0060000  56.0310000
  31.0000000  31.0000000  56.0130000  44.0840000  31.0000000  82.6470000
  43.6820000  31.2170000  81.8070000  44.5510000  31.7960000  82.9030000
  86.5410000  75.2230000  95.1170000  86.7430000  74.2950000  95.0040000
  86.2910000  75.3040000  96.0380000  75.4860000  59.1610000  84.7940000
  74.7100000  58.6800000  84.5060000  75.1470000  59.8310000  85.3870000
  70.4650000  69.3440000  69.8430000  69.8470000  68.7690000  69.3920000
  71.0800000  69.6170000  69.1620000  88.4120000  31.0000000  64.5750000
  87.6750000  31.0040000  63.9640000  89.0000000  31.6810000  64.2450000
  31.5840000  64.6920000  58.4270000  31.0040000  63.9310000  58.4300000
  31.0000000  65.4390000  58.5640000  75.4670000  88.7580000  56.0370000
  76.4170000  88.6500000  56.0000000  75.1270000  87.8670000  56.1180000
  43.4800000  55.7630000  75.6380000  44.1530000  56.3560000  75.3060000
  42.9850000  56.2890000  76.2670000  33.4480000  50.3850000  75.6810000
  33.4960000  51.0620000  75.0070000  33.3360000  49.5680000  75.1940000
  44.2470000  69.0890000  83.4950000  43.9610000  68.1940000  83.6770000
  45.0100000  69.2180000  84.0580000  82.8260000  53.0320000  84.4570000
  82.2090000  52.5950000  83.8700000  82.6390000  53.9650000  84.3500000
  85.0010000  72.0650000  85.8480000  84.0440000  72.0740000  85.8640000
  85.2450000  71.3400000  86.4240000  43.9160000  83.9490000  71.0760000
  44.0650000  83.0610000  70.7500000  43.3440000  84.3510000  70.4220000
  47.7390000  39.1040000  80.9350000  46.8020000  39.0120000  80.7610000
  48.1130000  39.3770000  80.0980000  62.5680000  85.7600000  76.7170000
  62.4800000  85.3260000  77.5660000  61.7760000  86.2900000  76.6350000
  87.0720000  60.9360000  78.4440000  87.8130000  60.5520000  77.9740000
  86.4920000  60.1950000  78.6240000  34.0200000  56.3700000  84.2530000
  33.3190000  55.7250000  84.3360000  34.8100000  55.8480000  84.1070000
  34.2490000  45.4010000  77.2950000  33.6870000  45.5460000  76.5340000
  34.4320000  44.4610000  77.2830000  71.3860000  86.0780000  82.5440000
  71.9750000  86.2790000  81.8170000  71.3910000  85.1220000  82.5990000
  44.6550000  88.4670000  74.2150000  44.8110000  89.0000000  74.9950000
  44.0710000  89.0000000  73.6740000  44.3870000  75.5680000  62.9960000
  45.0160000  74.9330000  62.6560000  44.2130000  76.1530000  62.2580000
  62.7470000  88.0120000  64.3200000  62.4800000  88.6880000  64.9420000
  62.3580000  87.2060000  64.6600000  58.4390000  86.5550000  66.0560000
  59.0950000  86.5340000  65.3600000  57.6050000  86.6640000  65.5970000
  67.1090000  53.0610000  56.0080000  66.7260000  53.9380000  56.0000000
  66.3560000  52.4700000  56.0140000  43.9570000  81.0540000  57.6480000
  44.9110000  81.0110000  57.5830000  43.7900000  81.8030000  58.2210000
  61.9680000  75.0210000  80.9330000  61.1860000  74.4840000  81.0630000
  61.6650000  75.9200000  81.0600000  55.5660000  61.8820000  86.1500000
  55.1310000  61.8040000  85.3010000  54.8750000  62.1700000  86.7470000
  66.4260000  83.6240000  96.4760000  65.4750000  83.5290000  96.4300000
  66.5720000  84.5700000  96.5000000  49.5210000  70.6730000  81.9600000
  50.3620000  70.6370000  82.4150000  49.5040000  69.8790000  81.4250000
  70.6830000  64.9280000  58.4400000  69.8340000  64.5250000  58.2560000
  70.4780000  65.8450000  58.6250000  70.3660000  44.7560000  85.1180000
  70.2470000  44.5850000  84.1840000  71.1220000  45.3420000  85.1600000
  87.1580000  42.1620000  84.8800000  86.5900000  42.9070000  84.6860000
  86.5960000  41.5490000  85.3540000  34.0760000  42.5460000  95.9450000
  34.8550000  42.5130000  96.5000000  33.3740000  42.1950000  96.4950000
  75.3430000  43.3270000  83.9190000  75.5930000  44.0830000  83.3880000
  75.0180000  43.7050000  84.7370000  44.2660000  33.5290000  76.1750000
  44.4190000  33.5920000  75.2320000  43.3120000  33.5100000  76.2630000
  88.9990000  37.3210000  69.0700000  89.0000000  37.3290000  70.0270000
  88.9560000  38.2450000  68.8220000  65.4510000  72.7910000  68.8580000
  66.0020000  73.2490000  68.2230000  65.5100000  71.8690000  68.6060000
  31.7910000  53.4660000  65.2180000  31.0030000  53.0080000  64.9250000
  32.5060000  53.0450000  64.7390000  61.9430000  38.9910000  95.6090000
  61.4150000  39.5640000  95.0530000  61.6540000  39.1890000  96.5000000
  43.7750000  83.2630000  62.4860000  44.3290000  83.7580000  63.0890000
  44.1240000  83.4660000  61.6180000  52.1160000  62.6620000  78.3620000
  51.7110000  63.4250000  77.9500000  52.1390000  62.8770000  79.2950000
  38.6720000  60.3320000  58.6290000  38.4650000  61.2480000  58.8150000
  37.8280000  59.8820000  58.6740000  37.1320000  33.3810000  90.4070000
  37.0310000  34.1520000  90.9650000  38.0240000  33.0780000  90.5750000
  79.0000000  37.5100000  88.6520000  78.7740000  36.5950000  88.4870000
  79.9540000  37.5120000  88.7310000  53.5690000  45.2790000  76.7960000
  53.5950000  44.6460000  77.5140000  54.2270000  45.9350000  77.0310000
  81.4890000  56.5550000  73.1420000  80.6340000  56.4490000  72.7240000
  82.0760000  55.9950000  72.6330000  51.6210000  64.8030000  86.9490000
  51.9470000  63.9610000  87.2670000  51.1020000  65.1490000  87.6760000
  59.9790000  31.0000000  61.1460000  60.8070000  31.0220000  60.6670000
  59.3290000  31.3140000  60.5160000  57.2730000  72.2930000  61.4110000
  57.2910000  72.8890000  62.1590000  56.3770000  72.3500000  61.0790000
  49.7520000  85.5720000  91.2260000  50.2410000  85.3810000  90.4260000
  49.5500000  84.7120000  91.5950000  52.4870000  72.7080000  75.8090000
  51.9150000  72.7280000  75.0420000  51.8870000  72.6440000  76.5530000
  61.6050000  44.9270000  78.9020000  61.7670000  45.8510000  79.0900000
  62.1760000  44.7300000  78.1580000  40.2400000  72.6280000  96.2670000
  40.0110000  72.3570000  95.3780000  41.1590000  72.8910000  96.2080000
  45.0830000  33.8310000  72.5750000  45.7500000  33.2060000  72.8570000
  44.6680000  33.4150000  71.8200000  75.7150000  65.0500000  78.2300000
  75.7440000  65.9010000  78.6670000  75.2550000  65.2180000  77.4070000
  46.8570000  81.6320000  83.8230000  45.9310000  81.8530000  83.9160000
  46.8750000  80.6740000  83.8160000  74.8000000  72.5970000  86.8880000
  75.6460000  72.1500000  86.8660000  74.1580000  71.8920000  86.9710000
  88.4790000  76.5560000  87.1390000  88.0220000  76.5880000  87.9800000
  88.9360000  77.3950000  87.0830000  49.5650000  88.6340000  57.6120000
  49.0480000  89.0000000  56.8950000  49.5540000  87.6890000  57.4580000
  67.5200000  41.3880000  61.9980000  68.1150000  42.0900000  61.7350000
  66.8260000  41.8320000  62.4850000  81.5890000  42.5030000  60.8220000
  80.9200000  43.1730000  60.9630000  81.9800000  42.7280000  59.9780000
  86.6340000  66.0230000  77.3560000  86.2050000  65.2110000  77.0910000
  85.9260000  66.6670000  77.3980000  73.7080000  56.7760000  74.1570000
  73.0770000  56.3110000  74.7060000  73.8460000  56.1970000  73.4070000
  58.5780000  35.6060000  96.5000000  57.7310000  36.0520000  96.5000000
  59.2220000  36.3140000  96.5000000  47.1340000  42.4980000  81.5300000
  47.3370000  41.9680000  80.7600000  47.7820000  43.2030000  81.5140000
  57.3560000  74.6050000  56.0000000  57.3430000  74.0990000  56.8120000
  58.0990000  75.2000000  56.0990000  72.3650000  87.2530000  78.1090000
  71.5020000  87.0130000  78.4470000  72.3220000  88.2030000  77.9960000
  72.4930000  71.9370000  69.1680000  71.9660000  72.2840000  69.8880000
  73.3990000  72.0930000  69.4370000  83.7320000  79.5360000  93.7890000
  82.9170000  79.9660000  93.5330000  84.3620000  80.2510000  93.8800000
  77.6360000  34.1650000  92.4480000  77.8520000  34.7990000  91.7640000
  77.0440000  34.6360000  93.0340000  81.6000000  36.7370000  78.3050000
  80.7400000  36.9010000  77.9190000  82.2080000  36.7860000  77.5670000
  31.1390000  55.3210000  82.9390000  31.0000000  56.2090000  82.6120000
  31.0000000  54.7590000  82.1760000  50.8830000  53.7280000  68.5440000
  51.7240000  53.2710000  68.5630000  51.1150000  54.6570000  68.5190000
  88.0550000  36.3590000  88.7680000  89.0000000  36.2750000  88.8970000
  87.6700000  35.8180000  89.4580000  74.0910000  39.9100000  87.7640000
  73.4890000  39.3660000  87.2560000  74.2800000  40.6560000  87.1940000
  50.3350000  71.9770000  96.0750000  50.0520000  71.1680000  96.5000000
  51.2050000  72.1470000  96.4380000  33.6440000  33.2520000  58.7030000
  33.1470000  33.4000000  59.5080000  34.5440000  33.4850000  58.9310000
  75.1260000  42.6890000  88.3910000  75.5200000  43.0550000  87.5990000
  75.8360000  42.1990000  88.8070000  81.4240000  88.9870000  69.3430000
  80.5110000  89.0000000  69.6290000  81.3760000  88.9530000  68.3880000
  67.0770000  85.2920000  65.5980000  66.9120000  86.1140000  65.1380000
  67.6520000  84.8000000  65.0120000  31.5760000  51.3950000  66.8570000
  31.0000000  50.9030000  66.2730000  31.0050000  51.6830000  67.5710000
  54.6340000  59.5820000  86.4540000  53.8750000  59.4640000  87.0240000
  55.3550000  59.1600000  86.9220000  82.7260000  69.1040000  59.8540000
  82.3120000  68.5970000  59.1560000  82.7220000  68.5180000  60.6110000
  35.4170000  66.6820000  83.5260000  34.9710000  67.3190000  82.9680000
  36.3420000  66.9240000  83.4730000  82.1990000  69.3470000  66.6180000
  82.1790000  70.0140000  67.3030000  82.0290000  68.5240000  67.0770000
  34.7500000  68.6070000  94.4700000  33.8310000  68.5150000  94.7220000
  35.0400000  67.7130000  94.2900000  65.1320000  76.4890000  68.9860000
  65.4710000  75.5990000  68.8880000  64.7260000  76.4970000  69.8530000
  65.8660000  85.8820000  82.3550000  65.0610000  86.1970000  82.7660000
  66.4970000  85.8270000  83.0730000  35.6200000  88.1610000  86.8240000
  35.1670000  89.0000000  86.7470000  35.5410000  87.9290000  87.7500000
  78.1030000  64.1180000  89.1690000  77.3350000  64.6480000  89.3830000
  78.3600000  63.7220000  90.0020000  43.2630000  66.4580000  65.1580000
  43.5040000  67.2690000  64.7120000  42.3090000  66.5020000  65.2370000
  43.3620000  47.0560000  59.8250000  43.1060000  46.4550000  59.1250000
  42.5380000  47.4490000  60.1160000  33.7710000  46.5600000  90.7130000
  33.4190000  45.6760000  90.8110000  34.7210000  46.4410000  90.7060000
  77.1470000  71.6390000  67.2800000  77.1050000  71.0800000  68.0560000
  76.5650000  71.2160000  66.6480000  72.6260000  50.4440000  91.1720000
  71.7360000  50.2070000  90.9120000  72.5160000  51.2160000  91.7270000
  88.3520000  84.6670000  71.5580000  89.0000000  85.3190000  71.8240000
  88.8550000  84.0130000  71.0720000  84.6610000  71.0290000  65.5390000
  84.5040000  71.2980000  66.4440000  83.7900000  70.8300000  65.1940000
  37.7080000  58.8640000  87.0190000  37.8800000  57.9230000  86.9690000
  38.5700000  59.2700000  86.9260000  61.5480000  68.9600000  61.8830000
  61.1880000  69.8390000  61.7660000  60.7850000  68.3820000  61.8510000
  68.0640000  57.5910000  80.1270000  68.3470000  56.8340000  80.6400000
  68.4220000  58.3450000  80.5960000  53.1740000  35.5010000  83.4800000
  53.5610000  34.7280000  83.0690000  52.4710000  35.1540000  84.0290000
  36.4840000  67.5990000  66.1180000  37.3310000  67.4520000  65.6990000
  36.4980000  67.0350000  66.8920000  83.3320000  36.9090000  92.1880000
  83.1400000  36.6790000  91.2790000  83.4320000  37.8610000  92.1790000
  89.0000000  40.1750000  93.9190000  88.8720000  39.2290000  93.8480000
  88.9220000  40.3580000  94.8560000  77.4430000  70.4400000  78.1120000
  77.0520000  71.2340000  78.4750000  78.1280000  70.2020000  78.7380000
  42.2000000  64.3110000  69.8780000  42.6790000  63.4880000  69.7770000
  41.6500000  64.1750000  70.6500000  83.4380000  34.4510000  96.3680000
  82.7580000  35.1120000  96.5000000  83.6510000  34.5090000  95.4360000
  75.4150000  46.0570000  96.5000000  75.1830000  45.5940000  95.6950000
  75.8020000  46.8800000  96.2000000  72.1830000  36.5810000  68.4740000
  72.7580000  37.2760000  68.1560000  72.7440000  36.0420000  69.0320000
  53.8700000  59.4320000  70.1170000  52.9750000  59.6600000  69.8670000
  53.8460000  58.4850000  70.2590000  77.8740000  59.2800000  63.0810000
  77.2650000  58.5430000  63.0930000  77.4300000  59.9680000  63.5770000
  89.0000000  75.5200000  73.7360000  88.5580000  76.0900000  74.3650000
  88.7420000  75.8620000  72.8800000  72.4480000  74.4280000  91.1870000
  71.4940000  74.3700000  91.1470000  72.6450000  75.3290000  90.9260000
  34.0250000  79.0570000  63.9170000  33.4030000  78.6510000  63.3140000
  33.4980000  79.6700000  64.4290000  78.6140000  76.0660000  88.6950000
  78.0880000  75.6580000  89.3820000  78.7580000  76.9610000  89.0020000
  53.2330000  36.1060000  69.3890000  52.5760000  36.7330000  69.6910000
  53.7880000  36.6090000  68.7920000  71.9590000  70.2120000  58.6030000
  71.0490000  70.4390000  58.7940000  71.9610000  69.2560000  58.5470000
  53.9050000  56.4610000  94.0250000  53.9690000  55.5060000  94.0560000
  54.7080000  56.7410000  93.5850000  35.4430000  73.1730000  58.7760000
  34.5130000  72.9470000  58.8020000  35.8710000  72.3870000  58.4350000
  56.7430000  55.4760000  69.5210000  56.1080000  54.7600000  69.5250000
  57.5950000  55.0410000  69.5430000  44.8300000  57.9190000  94.2230000
  45.7300000  57.9920000  93.9070000  44.4710000  58.8020000  94.1300000
  45.7720000  79.9350000  93.4470000  45.4300000  80.6440000  92.9020000
  46.4920000  79.5650000  92.9360000  33.2800000  33.0750000  74.2750000
  33.8580000  33.8250000  74.4140000  32.9960000  32.8250000  75.1550000
  59.3590000  41.5400000  71.3250000  59.1680000  42.4390000  71.0570000
  58.6750000  41.0150000  70.9090000  41.4860000  43.4050000  80.3240000
  41.6150000  43.0290000  79.4530000  42.3540000  43.7110000  80.5850000
  83.4530000  47.0870000  57.6610000  83.6780000  46.3040000  57.1580000
  83.9900000  47.0270000  58.4510000  71.2450000  42.4670000  57.6640000
  71.6270000  41.7480000  58.1680000  71.0930000  43.1580000  58.3090000
  65.0640000  82.8730000  59.6310000  64.2760000  82.3560000  59.8010000
  65.4650000  82.4560000  58.8690000  54.1780000  53.5090000  74.3830000
  54.0660000  52.8410000  75.0580000  54.2220000  53.0170000  73.5620000
  45.2980000  55.8990000  84.1290000  45.4190000  56.7300000  84.5890000
  44.3740000  55.6860000  84.2590000  55.5340000  61.3000000  67.5340000
  55.1190000  60.4580000  67.7210000  54.8100000  61.9260000  67.5230000
  61.7740000  88.8950000  94.1240000  62.7230000  88.9460000  94.0130000
  61.4230000  89.0000000  93.2390000  82.4020000  37.0220000  88.8620000
  83.0110000  36.4170000  88.4390000  82.8920000  37.8410000  88.9380000
  46.4280000  70.2620000  91.2770000  45.4940000  70.4590000  91.2060000
  46.4870000  69.6350000  91.9980000  37.3550000  85.6370000  89.4850000
  37.5350000  84.6970000  89.4950000  36.7480000  85.7580000  88.7540000
  42.8100000  80.3090000  70.2820000  42.6530000  80.8740000  69.5260000
  41.9770000  79.8560000  70.4200000  34.3950000  63.4300000  89.6930000
  33.9940000  64.0050000  90.3450000  33.6550000  63.0400000  89.2280000
  73.2450000  78.2960000  85.6950000  72.3980000  77.8700000  85.8190000
  73.8730000  77.5740000  85.6500000  53.7030000  49.8540000  88.6700000
  52.9480000  50.4260000  88.8040000  54.1070000  50.1750000  87.8630000
  35.9640000  76.5320000  59.0370000  35.6390000  75.6650000  58.7960000
  35.5090000  76.7400000  59.8540000  81.2510000  55.2090000  94.7510000
  81.0520000  54.3330000  95.0810000  81.4120000  55.7310000  95.5370000
  60.6990000  77.1190000  83.3820000  60.2750000  77.3410000  84.2110000
  60.2620000  76.3160000  83.0970000  82.3860000  54.8140000  70.4510000
  83.3030000  54.7020000  70.7000000  82.1170000  53.9530000  70.1310000
  74.8960000  33.7540000  79.8150000  74.8690000  33.5960000  80.7590000
  74.9770000  34.7040000  79.7330000  68.9030000  88.8910000  56.0000000
  67.9510000  88.9850000  56.0010000  69.0510000  87.9450000  56.0000000
  48.2040000  65.1140000  96.0570000  47.3570000  65.0810000  96.5000000
  48.6030000  65.9290000  96.3620000  74.9910000  41.7150000  81.5440000
  74.5650000  41.0660000  82.1040000  74.7110000  41.4890000  80.6570000
  72.3620000  71.5810000  64.1890000  72.0720000  72.2440000  63.5630000
  71.6040000  71.0060000  64.2990000  53.4640000  42.2380000  61.5820000
  53.1420000  42.5500000  62.4280000  52.8630000  42.6210000  60.9410000
  42.9640000  43.0360000  67.6150000  42.5840000  42.5330000  68.3350000
  42.4170000  42.8240000  66.8590000  49.2700000  73.8760000  56.3910000
  48.6590000  74.5010000  56.0000000  48.7140000  73.1650000  56.7100000
  45.2710000  43.8820000  63.8350000  45.8620000  44.0480000  64.5690000
  45.3520000  44.6600000  63.2810000  82.3930000  83.7210000  79.5330000
  83.3390000  83.8110000  79.4210000  82.0340000  83.8490000  78.6550000
  38.9410000  54.5930000  59.0380000  39.8810000  54.4140000  59.0000000
  38.7640000  55.1110000  58.2520000  58.5900000  53.4910000  85.1480000
  58.4450000  54.2570000  84.5930000  59.1290000  52.9070000  84.6140000
  62.4700000  66.3950000  83.3110000  61.6940000  65.8400000  83.3770000
  62.3550000  67.0500000  84.0010000  68.8360000  79.5480000  61.8950000
  68.1390000  79.4400000  62.5420000  69.4530000  80.1540000  62.3060000
  48.7120000  53.7210000  74.8390000  49.3040000  52.9740000  74.7510000
  49.2880000  54.4860000  74.8230000  77.9690000  51.6890000  88.1050000
  78.7070000  51.3810000  87.5790000  77.2560000  51.0850000  87.8950000
  82.2830000  39.1030000  83.7530000  82.4740000  38.1940000  83.9850000
  82.2310000  39.1010000  82.7960000  52.2630000  46.0140000  96.1900000
  52.1510000  46.4070000  95.3240000  53.0260000  45.4440000  96.0970000
  80.3010000  46.3850000  81.8150000  80.0090000  46.2090000  82.7090000
  80.5070000  45.5220000  81.4560000  51.8100000  50.7290000  68.8420000
  51.7230000  49.9640000  68.2740000  52.7310000  50.9780000  68.7700000
  47.8590000  32.9810000  95.1610000  48.3410000  32.1650000  95.0240000
  47.9220000  33.1410000  96.1030000  36.1160000  60.7330000  93.8970000
  37.0550000  60.7000000  93.7150000  35.9490000  61.6450000  94.1350000
  79.3720000  62.6110000  70.0370000  79.3500000  61.9250000  70.7040000
  79.6710000  63.3910000  70.5050000  45.6740000  53.6730000  94.0280000
  45.9700000  54.2470000  94.7350000  46.3150000  52.9620000  94.0110000
  80.2320000  64.5750000  92.3630000  79.6620000  63.8270000  92.1890000
  79.7440000  65.1080000  92.9920000  75.0800000  31.5800000  71.4680000
  75.8300000  31.0000000  71.3370000  74.3780000  31.0000000  71.7660000
  83.1030000  73.7270000  72.0940000  83.4240000  74.1100000  72.9100000
  83.8910000  73.4160000  71.6480000  66.5960000  32.9730000  82.6440000
  67.2780000  32.5150000  83.1350000  65.8070000  32.4470000  82.7810000
  73.9360000  62.8970000  58.9260000  74.0140000  62.0900000  58.4180000
  73.1030000  63.2770000  58.6460000  81.0160000  52.4470000  93.4400000
  80.0720000  52.5550000  93.5530000  81.1400000  51.5010000  93.3550000
  62.5840000  43.1150000  62.6690000  63.3470000  43.6920000  62.6290000
  61.8350000  43.7100000  62.7000000  83.5340000  31.0100000  96.4470000
  84.4900000  31.0000000  96.5000000  83.3470000  31.1310000  95.5160000
  85.0870000  63.0910000  92.1160000  84.4510000  63.5140000  92.6920000
  84.5800000  62.4320000  91.6410000  33.6520000  82.9340000  56.7660000
  33.3080000  82.3420000  57.4350000  33.8110000  82.3720000  56.0080000
  48.6860000  78.9070000  85.5620000  48.5880000  78.2410000  86.2430000
  48.9920000  79.6850000  86.0300000  74.5340000  69.5280000  59.2940000
  75.1560000  70.1300000  58.8860000  74.3620000  69.9080000  60.1560000
  86.3760000  81.3100000  82.9790000  86.8970000  80.8190000  82.3450000
  85.8960000  80.6390000  83.4670000  54.0370000  80.0190000  84.7980000
  54.5420000  80.3590000  84.0600000  53.2420000  79.6610000  84.4020000
  83.7630000  74.5540000  68.1060000  84.5900000  74.8690000  68.4700000
  83.1740000  74.4990000  68.8600000  44.3400000  75.6800000  58.8360000
  44.9400000  76.3180000  59.2220000  43.5770000  76.1960000  58.5720000
  85.7840000  40.5320000  83.1490000  85.8920000  41.4180000  82.8030000
  84.8360000  40.3980000  83.1750000  70.7140000  86.1210000  93.5030000
  70.4180000  86.6860000  92.7900000  71.4520000  86.5920000  93.8920000
  52.9280000  36.4720000  78.2860000  52.1360000  36.7600000  77.8330000
  53.2240000  37.2450000  78.7680000  78.9070000  85.1810000  63.5690000
  79.2510000  85.1680000  62.6760000  78.1390000  84.6090000  63.5390000
  79.3000000  47.1490000  91.7350000  79.0200000  46.2380000  91.6460000
  79.8180000  47.1630000  92.5400000  47.5610000  75.9450000  58.6270000
  48.0560000  75.3570000  59.1970000  48.1280000  76.0770000  57.8670000
  58.3070000  79.6870000  91.5890000  57.4710000  79.2220000  91.6080000
  58.9620000  79.0110000  91.7660000  69.2440000  47.3460000  78.8720000
  69.5150000  46.4830000  78.5610000  70.0650000  47.8130000  79.0310000
  58.0080000  77.0170000  89.7190000  57.8010000  76.9340000  90.6490000
  58.9120000  77.3340000  89.7020000  67.2310000  65.1790000  73.1340000
  66.8140000  64.3440000  72.9240000  66.5070000  65.7500000  73.3930000
  54.9600000  82.3860000  96.5000000  55.2540000  83.2750000  96.2990000
  55.7570000  81.8570000  96.4710000  84.9250000  81.2570000  61.1750000
  85.4190000  80.6320000  61.7050000  84.9970000  80.9220000  60.2800000
  31.0370000  41.7990000  69.0730000  31.0000000  41.8880000  70.0250000
  31.0000000  40.8550000  68.9180000  82.3200000  34.4530000  84.2730000
  82.4010000  35.3960000  84.1340000  81.3770000  34.3010000  84.3460000
  52.9310000  61.0050000  76.6140000  53.4530000  61.0880000  75.8170000
  53.4180000  60.3850000  77.1570000  47.9790000  49.8900000  89.5310000
  47.8630000  50.5910000  90.1720000  47.6920000  49.0980000  89.9860000
  48.5670000  33.5150000  72.9220000  48.3730000  33.3820000  73.8490000
  48.4210000  32.6590000  72.5200000  32.7850000  37.4350000  68.4180000
  33.3790000  37.1570000  67.7220000  32.9140000  38.3820000  68.4790000
  31.0730000  31.4110000  96.0720000  31.0000000  32.2640000  96.5000000
  31.8330000  31.0000000  96.4850000  71.6580000  62.3470000  76.8220000
  72.0790000  63.1230000  76.4520000  70.7200000  62.5350000  76.7690000
  60.8110000  76.4790000  73.4280000  61.4520000  75.8510000  73.7610000
  61.1830000  77.3360000  73.6360000  86.0350000  44.7600000  66.0230000
  86.9810000  44.7790000  66.1680000  85.8340000  43.8370000  65.8670000
  68.3810000  80.0620000  90.5210000  67.8910000  79.2580000  90.6900000
  68.1500000  80.6410000  91.2480000  55.8380000  40.4470000  94.1700000
  55.9970000  39.5090000  94.2760000  56.7040000  40.8190000  93.9980000
  51.8490000  65.6240000  81.5090000  52.7270000  66.0050000  81.5300000
  51.9660000  64.7760000  81.0800000  71.1490000  44.6770000  94.0380000
  70.3830000  44.1270000  93.8760000  70.8350000  45.5720000  93.9030000
  78.0120000  46.8970000  78.9420000  78.6820000  46.4760000  79.4810000
  77.2820000  47.0490000  79.5420000  66.0470000  38.7920000  64.5200000
  65.1120000  38.7810000  64.3170000  66.3320000  37.8880000  64.3870000
  74.0390000  48.9620000  96.5000000  74.8600000  49.4540000  96.4970000
  73.7140000  49.0320000  95.6020000  58.6170000  35.4700000  60.3090000
  59.0370000  35.7960000  59.5140000  57.7140000  35.7840000  60.2500000
  63.8070000  84.3440000  74.0540000  64.6730000  84.3300000  73.6470000
  63.9610000  84.6790000  74.9370000  82.7880000  54.9780000  77.8190000
  82.4110000  54.1230000  77.6110000  83.6870000  54.9290000  77.4930000
  52.9900000  56.7720000  96.4770000  53.7970000  57.2870000  96.4660000
  53.2860000  55.8620000  96.5000000  34.1310000  56.5540000  91.1430000
  33.8820000  57.3850000  91.5470000  34.3370000  55.9800000  91.8820000
  38.4920000  42.0180000  58.5460000  38.9030000  42.3930000  59.3250000
  39.2150000  41.6170000  58.0630000  87.2790000  67.3760000  74.6270000
  87.8150000  67.0650000  73.8980000  86.7440000  66.6200000  74.8710000
  89.0000000  85.3830000  65.6490000  89.0000000  84.4280000  65.6000000
  88.0830000  85.6300000  65.5280000  57.4620000  45.0290000  79.4620000
  57.6330000  44.1420000  79.7800000  56.8800000  45.4110000  80.1190000
  60.5470000  38.2110000  58.1240000  61.2710000  38.0250000  57.5260000
  60.5750000  39.1610000  58.2450000  84.4330000  46.7440000  71.8880000
  84.9100000  45.9550000  71.6340000  83.8210000  46.8970000  71.1680000
  75.6960000  76.2550000  66.7180000  76.1090000  75.9440000  67.5240000
  74.7650000  76.3200000  66.9360000  84.3060000  31.0190000  77.6080000
  84.3320000  31.0000000  78.5640000  84.1790000  31.9430000  77.3890000
  37.3750000  72.6730000  76.7670000  37.3410000  73.5990000  77.0060000
  36.4780000  72.3610000  76.8870000  55.1340000  88.3920000  75.3310000
  55.3810000  87.4710000  75.2500000  54.2410000  88.4330000  74.9890000
  64.4120000  86.5180000  95.5800000  64.9950000  86.1410000  94.9210000
  64.1060000  85.7650000  96.0870000  56.2040000  64.1500000  90.4380000
  57.0580000  64.4560000  90.7440000  56.3320000  63.2180000  90.2610000
  41.4230000  84.1270000  96.3280000  40.4840000  84.2000000  96.5000000
  41.7210000  85.0330000  96.2380000  78.7880000  80.4120000  95.1370000
  78.2910000  81.0340000  94.6070000  78.3770000  79.5650000  94.9630000
  82.6760000  58.6810000  60.6820000  81.9830000  58.3320000  60.1220000
  82.2170000  59.0000000  61.4600000  68.7650000  70.1340000  80.1500000
  68.4690000  70.2590000  81.0520000  68.6360000  70.9870000  79.7350000
  72.3860000  84.2730000  58.5740000  72.8510000  83.6260000  59.1050000
  71.9050000  83.7520000  57.9290000  58.4590000  71.2150000  59.4900000
  59.3310000  70.8200000  59.4890000  57.8760000  70.5110000  59.2060000
  34.0680000  66.9740000  76.2170000  33.8150000  66.0880000  75.9610000
  34.1550000  67.4480000  75.3900000  42.2310000  48.4850000  91.8670000
  41.5070000  49.1100000  91.8930000  42.8950000  48.8630000  92.4440000
  69.9850000  70.9030000  85.3890000  69.3380000  71.5720000  85.6100000
  70.8250000  71.3620000  85.4220000  36.7230000  42.7340000  67.0870000
  36.6930000  42.0810000  67.7860000  37.1760000  42.2930000  66.3680000
  83.1610000  39.7510000  77.7080000  83.4390000  38.9260000  78.1060000
  82.2100000  39.6720000  77.6320000  57.3120000  61.6050000  71.6610000
  57.0710000  60.6880000  71.5280000  56.8210000  61.8720000  72.4380000
  77.6730000  88.6270000  71.4720000  78.4930000  89.0000000  71.1500000
  77.9100000  87.7470000  71.7670000  76.7910000  46.6430000  75.2980000
  77.3630000  45.9670000  74.9360000  77.1510000  46.8220000  76.1670000
  48.2990000  55.8030000  71.9710000  47.9470000  55.4510000  72.7880000
  49.2390000  55.6260000  72.0190000  57.7190000  81.9360000  65.1400000
  58.5030000  81.4910000  65.4600000  57.1720000  82.0460000  65.9190000
  63.4860000  88.9700000  70.8010000  63.6450000  89.0000000  69.8580000
  63.2050000  88.0710000  70.9690000  64.6560000  53.0630000  60.9960000
  63.7320000  53.2830000  60.8760000  64.6450000  52.2330000  61.4720000
  84.7060000  37.5410000  85.9810000  84.8100000  38.3870000  86.4170000
  85.5930000  37.1830000  85.9370000  78.9150000  55.6520000  90.5240000
  79.0460000  55.9710000  89.6320000  78.7770000  56.4430000  91.0450000
  43.8610000  38.7190000  82.9170000  44.1770000  38.5970000  82.0220000
  42.9150000  38.8320000  82.8250000  31.1500000  45.5190000  87.5850000
  31.0790000  44.5860000  87.7860000  32.0350000  45.7580000  87.8620000
  84.7010000  77.9500000  65.2380000  83.8080000  77.9150000  65.5800000
  85.2450000  77.6180000  65.9530000  68.2930000  44.4420000  74.7200000
  68.5760000  44.7570000  75.5790000  68.9560000  44.7730000  74.1130000
  43.2540000  49.6250000  58.3120000  42.5020000  49.0450000  58.1930000
  44.0090000  49.0360000  58.3380000  54.9190000  86.8020000  71.6650000
  55.6150000  87.3210000  71.2620000  55.1750000  86.7300000  72.5850000
  48.2570000  59.4650000  77.4620000  48.4480000  60.3710000  77.7060000
  49.0630000  58.9880000  77.6600000  45.1920000  87.6510000  59.1770000
  45.0900000  88.5880000  59.0110000  45.1540000  87.2480000  58.3090000
  73.8550000  74.5570000  85.6480000  74.5100000  74.9810000  85.0940000
  73.0600000  75.0750000  85.5190000  31.7080000  88.9310000  72.0760000
  31.0000000  88.4050000  72.4470000  32.3510000  89.0000000  72.7820000
  59.0350000  76.8270000  79.4860000  59.9230000  77.1610000  79.3630000
  59.1550000  75.9700000  79.8980000  35.8050000  85.0570000  91.5190000
  36.6270000  85.1760000  91.9940000  35.8220000  84.1420000  91.2360000
  46.0860000  62.8170000  73.2230000  45.7770000  63.3110000  72.4650000
  45.2990000  62.6600000  73.7450000  79.2590000  72.3820000  88.7240000
  78.8680000  73.0610000  89.2740000  80.0900000  72.1760000  89.1520000
  33.5460000  65.1180000  87.0200000  32.8040000  64.5140000  87.0430000
  33.7610000  65.2690000  87.9410000  88.9540000  56.8990000  69.4430000
  88.0190000  56.8560000  69.2420000  89.0000000  56.7940000  70.3930000
  84.5430000  79.8720000  71.6200000  84.3090000  80.7980000  71.5590000
  85.4850000  79.8740000  71.7950000  41.2440000  79.8190000  78.8910000
  41.7590000  79.9690000  79.6840000  41.8690000  79.9330000  78.1740000
  88.9280000  38.6630000  64.9470000  88.0170000  38.4660000  64.7320000
  89.0000000  38.4770000  65.8830000  69.7490000  84.2510000  91.9060000
  70.1720000  83.4470000  91.6020000  68.8130000  84.0930000  91.7750000
  76.8130000  50.3960000  57.9360000  76.1430000  51.0740000  58.0280000
  76.6870000  49.8300000  58.6980000  80.2690000  64.3280000  95.6550000
  80.2830000  63.8780000  96.5000000  79.4420000  64.0600000  95.2540000
  89.0000000  42.7540000  88.2090000  88.6330000  42.0580000  87.6640000
  88.5340000  42.6780000  89.0420000  59.4170000  84.1850000  94.6070000
  60.3160000  83.8570000  94.6160000  59.3410000  84.6540000  93.7760000
  68.3660000  58.7190000  56.4770000  69.1760000  58.5130000  56.0100000
  67.6860000  58.2430000  56.0000000  73.1040000  51.8030000  80.8690000
  72.4450000  52.3640000  81.2770000  72.6050000  51.0690000  80.5100000
  46.3090000  54.6870000  77.4740000  47.0470000  54.6500000  76.8650000
  45.6660000  55.2460000  77.0380000  64.2400000  73.6770000  70.8770000
  63.6210000  73.9700000  70.2080000  64.0300000  74.2070000  71.6460000
  57.7000000  61.7260000  88.4220000  57.8940000  61.3260000  89.2700000
  56.7470000  61.6690000  88.3430000  41.7920000  64.2950000  93.3910000
  42.0380000  65.1760000  93.6740000  41.4750000  63.8680000  94.1880000
  56.4740000  71.3420000  95.2610000  55.6630000  71.8500000  95.2740000
  57.1300000  71.9270000  95.6410000  58.0380000  44.3930000  58.2760000
  57.9830000  44.2380000  59.2190000  58.5950000  43.6860000  57.9490000
  61.7330000  53.5370000  58.5030000  62.5210000  52.9970000  58.5680000
  62.0510000  54.4360000  58.5920000  78.9560000  36.3950000  58.3090000
  79.3650000  37.2580000  58.3800000  79.6170000  35.8520000  57.8790000
  54.3500000  70.4060000  59.5930000  53.9160000  69.9900000  58.8480000
  55.2680000  70.4710000  59.3300000  39.9140000  87.9040000  90.6160000
  39.8280000  88.2180000  91.5160000  40.7640000  88.2360000  90.3260000
  89.0000000  84.0310000  60.9860000  88.9460000  83.1480000  61.3510000
  88.0880000  84.3120000  60.9030000  65.4320000  64.4710000  87.0300000
  65.7480000  64.9120000  86.2420000  64.8980000  63.7470000  86.7010000
  74.9210000  81.0580000  66.5390000  74.4470000  81.7890000  66.1430000
  75.7180000  81.4530000  66.8930000  83.4790000  31.9230000  84.4230000
  83.7150000  31.0000000  84.3270000  84.0420000  32.3800000  83.7980000
  45.1600000  36.0860000  56.0000000  44.9670000  35.8400000  56.9040000
  45.4440000  36.9990000  56.0550000  69.9110000  38.7860000  59.9660000
  70.5930000  38.1630000  60.2160000  70.0720000  38.9600000  59.0380000
  82.9140000  41.2890000  87.7520000  81.9710000  41.3760000  87.6130000
  83.0040000  40.5140000  88.3070000  43.9230000  42.7150000  96.2980000
  44.3810000  43.5310000  96.5000000  43.0000000  42.9100000  96.4630000
  40.1060000  45.0680000  78.7060000  39.3940000  45.7070000  78.7040000
  40.3840000  45.0160000  77.7910000  40.5490000  80.9160000  96.4670000
  41.3190000  81.4820000  96.5000000  39.8060000  81.5200000  96.4840000
  86.1400000  47.6490000  67.0280000  86.3150000  48.5860000  66.9510000
  86.8310000  47.3220000  67.6050000  40.8550000  45.7300000  85.0600000
  40.4060000  46.5300000  84.7850000  41.7760000  45.9820000  85.1240000
  59.0440000  71.8490000  85.6110000  59.7600000  71.9310000  86.2410000
  58.2910000  71.5790000  86.1370000  38.6150000  58.5520000  63.9450000
  38.5690000  58.6820000  64.8920000  38.0510000  59.2350000  63.5820000
  33.9890000  36.7520000  76.6060000  34.5890000  36.0100000  76.5380000
  33.8820000  37.0580000  75.7050000  75.0650000  76.9600000  69.6000000
  74.7380000  77.6360000  70.1930000  74.3480000  76.3280000  69.5360000
  79.3740000  70.8760000  95.9210000  80.1650000  70.6180000  95.4480000
  79.4280000  71.8310000  95.9750000  68.4150000  33.2140000  86.1170000
  67.4620000  33.1360000  86.0750000  68.5760000  34.1570000  86.1680000
  50.2580000  65.6290000  78.9900000  49.9370000  66.5150000  78.8220000
  51.2070000  65.6930000  78.8820000  42.1100000  44.5790000  56.9490000
  41.6880000  45.2950000  57.4240000  41.9080000  44.7500000  56.0280000
  82.0050000  85.4690000  96.4500000  81.8600000  86.4140000  96.5000000
  81.1320000  85.0990000  96.3130000  49.0430000  63.3210000  93.6110000
  49.4630000  64.0840000  93.2130000  48.1420000  63.6020000  93.7760000
  53.4820000  38.7600000  56.0010000  54.1080000  39.4850000  56.0000000
  52.6240000  39.1850000  56.0070000  51.0060000  43.8180000  58.5310000
  51.6990000  44.4730000  58.6030000  51.3450000  43.0570000  59.0040000
  78.8500000  76.5450000  72.8590000  78.6580000  75.9190000  73.5570000
  79.3470000  77.2410000  73.2900000  43.7850000  68.9540000  62.5730000
  44.5160000  69.0390000  61.9610000  43.0100000  68.8870000  62.0140000
  55.4030000  35.3760000  59.0960000  54.7490000  34.8620000  58.6220000
  54.8910000  35.9370000  59.6790000  76.8680000  53.9530000  90.0020000
  76.9160000  54.2040000  90.9240000  77.7090000  53.5300000  89.8250000
  62.9510000  50.2720000  93.8940000  62.5680000  49.3950000  93.8870000
  63.8960000  50.1210000  93.9370000  80.2500000  31.0000000  95.9590000
  79.5470000  31.3570000  96.5000000  81.0360000  31.0840000  96.5000000
  43.8870000  46.5780000  76.4070000  43.7640000  46.2910000  75.5020000
  43.0140000  46.8490000  76.6930000  78.1210000  43.3010000  94.2320000
  79.0310000  43.4280000  93.9620000  78.0670000  42.3730000  94.4640000
  58.4320000  38.7880000  93.1410000  58.9820000  39.5700000  93.1860000
  57.7270000  39.0250000  92.5370000  49.5180000  43.3450000  79.0010000
  50.3240000  43.7000000  78.6260000  48.9920000  43.0920000  78.2410000
  81.7420000  69.3320000  63.9900000  80.8420000  69.4890000  64.2730000
  81.6760000  68.6010000  63.3750000  80.1100000  40.9580000  94.7370000
  80.3310000  40.2210000  95.3060000  80.9180000  41.1440000  94.2580000
  49.3590000  88.1440000  66.8150000  49.9130000  88.2680000  67.5850000
  48.9550000  89.0000000  66.6700000  74.7500000  53.0570000  60.4280000
  75.5340000  52.5530000  60.2110000  75.0810000  53.9200000  60.6800000
  88.9070000  75.8980000  69.3440000  89.0000000  76.2250000  70.2390000
  88.9730000  74.9460000  69.4280000  88.3080000  54.0280000  68.4330000
  88.9720000  54.6950000  68.2630000  88.7940000  53.2030000  68.4430000
  51.3410000  64.2720000  71.7470000  52.2010000  64.4030000  72.1480000
  50.9260000  65.1340000  71.7820000  48.7820000  62.2080000  91.3880000
  47.9950000  62.7520000  91.4000000  48.4960000  61.3800000  91.0010000
  82.0730000  33.6560000  77.4830000  81.3290000  34.2440000  77.3600000
  82.8330000  34.2370000  77.5340000  62.5930000  34.0500000  71.3060000
  62.7160000  33.9770000  70.3600000  62.9910000  33.2540000  71.6610000
  38.0290000  75.6810000  84.6300000  37.3950000  76.3970000  84.5980000
  38.8810000  76.1100000  84.5440000  79.4280000  82.3230000  78.0350000
  78.4830000  82.3040000  78.1840000  79.7950000  81.8060000  78.7530000
  73.5310000  35.1280000  57.4500000  73.4550000  35.6530000  56.6540000
  72.8610000  34.4500000  57.3570000  82.9130000  67.9790000  96.0780000
  82.2590000  68.5530000  96.4770000  82.7770000  67.1300000  96.5000000
  57.1980000  67.6910000  69.7120000  57.2140000  66.7340000  69.6920000
  58.1110000  67.9440000  69.8540000  76.5620000  66.9750000  87.8810000
  75.9710000  66.2350000  88.0140000  77.0520000  67.0420000  88.7010000
  48.9710000  48.6090000  84.8270000  48.5480000  49.4290000  85.0800000
  48.8970000  48.0520000  85.6030000  88.5230000  59.7330000  64.3470000
  89.0000000  60.5440000  64.1750000  88.9820000  59.3390000  65.0900000
  79.0560000  54.3380000  71.7700000  78.3800000  53.9620000  71.2060000
  79.8600000  53.8850000  71.5150000  66.7010000  87.7230000  70.6100000
  67.2920000  88.4520000  70.4250000  65.8370000  88.1270000  70.6850000
  67.0900000  31.0000000  80.9300000  66.4630000  31.0010000  80.2070000
  67.9030000  31.3240000  80.5420000  45.1840000  66.4100000  61.5880000
  45.9340000  65.9920000  62.0090000  44.4560000  66.2620000  62.1920000
  41.0140000  76.2550000  62.2370000  40.6510000  76.2200000  63.1210000
  41.5510000  77.0480000  62.2300000  66.5930000  47.1920000  62.4210000
  66.4300000  47.6390000  61.5910000  65.7660000  46.7540000  62.6240000
  55.2140000  82.7990000  79.0100000  56.0820000  83.1990000  79.0570000
  54.6100000  83.5410000  78.9680000  69.8510000  39.5180000  84.4840000
  69.8560000  39.7910000  83.5670000  68.9790000  39.1470000  84.6200000
  34.0730000  36.7370000  64.1260000  33.7770000  37.0820000  64.9680000
  34.7220000  37.3730000  63.8210000  66.6730000  46.6230000  78.1550000
  67.2270000  46.9540000  77.4480000  66.5800000  45.6880000  77.9690000
  87.6940000  73.9000000  80.0370000  87.5740000  72.9570000  79.9330000
  86.8730000  74.2820000  79.7280000  54.6640000  52.5360000  63.7250000
  54.0330000  51.8370000  63.5520000  54.6010000  52.6880000  64.6680000
  36.1750000  64.4910000  60.9380000  35.8850000  65.0680000  61.6430000
  36.7050000  63.8240000  61.3760000  40.0100000  48.2830000  62.2220000
  40.7270000  48.0690000  62.8190000  40.1820000  47.7550000  61.4420000
  60.9090000  59.2510000  84.4820000  60.1940000  58.8080000  84.0260000
  61.7040000  58.8990000  84.0810000  80.3620000  65.6380000  89.2770000
  81.1780000  66.1200000  89.4120000  79.9220000  65.6700000  90.1270000
  42.6380000  43.9350000  94.0290000  43.5890000  43.8980000  93.9300000
  42.3050000  43.9830000  93.1320000  89.0010000  74.2410000  84.7140000
  88.4540000  73.4570000  84.6560000  88.5790000  74.7790000  85.3840000
  72.8320000  40.7680000  94.0210000  72.4930000  41.6160000  94.3090000
  73.6740000  40.6810000  94.4690000  44.9480000  89.0000000  78.3580000
  44.2630000  88.8770000  79.0150000  44.4900000  88.9410000  77.5190000
  38.1910000  87.9140000  70.4260000  37.9200000  88.8110000  70.6220000
  37.3730000  87.4470000  70.2600000  61.2550000  60.5900000  93.8080000
  61.8410000  61.3070000  93.5670000  61.4190000  59.9150000  93.1490000
  33.0700000  44.0170000  81.8820000  33.3470000  44.6470000  81.2170000
  32.5290000  44.5270000  82.4860000  53.3440000  31.3270000  88.6970000
  53.4260000  31.0000000  87.8020000  52.4950000  31.0000000  88.9960000
  31.0000000  34.6350000  77.5090000  31.5610000  35.4080000  77.5710000
  31.5700000  33.9530000  77.1530000  31.5750000  35.6540000  66.4040000
  31.0000000  36.2870000  66.8340000  31.0000000  34.9240000  66.1740000
  85.4950000  31.9550000  86.2840000  86.0080000  32.5390000  85.7250000
  85.8260000  31.0790000  86.0830000  76.2200000  79.5960000  92.7390000
  77.1470000  79.7490000  92.5570000  76.2090000  79.1910000  93.6060000
  71.5110000  44.3160000  75.8000000  72.0230000  43.5130000  75.8960000
  70.8500000  44.2620000  76.4920000  66.7720000  75.6290000  75.6510000
  67.0450000  75.3010000  76.5080000  66.2360000  74.9250000  75.2850000
  76.6170000  72.3000000  96.3590000  76.6780000  72.0870000  95.4280000
  77.1860000  73.0630000  96.4690000  31.0000000  81.6170000  68.9310000
  31.1620000  81.7890000  69.8590000  31.8720000  81.5900000  68.5370000
  81.4720000  50.3330000  78.8230000  82.3080000  49.9510000  78.5550000
  81.6040000  51.2780000  78.7480000  42.3090000  76.8050000  94.3830000
  42.6300000  77.6780000  94.1570000  41.4430000  76.9590000  94.7620000
  48.6170000  53.1560000  56.9440000  47.7220000  53.4180000  57.1580000
  48.6900000  53.3000000  56.0000000  36.6760000  87.9920000  93.6140000
  37.5130000  87.7380000  93.2260000  36.5520000  88.9020000  93.3430000
  32.3670000  62.8570000  96.1270000  33.0170000  63.5440000  95.9820000
  31.8190000  62.8760000  95.3420000  37.3050000  53.3980000  56.3420000
  36.4260000  53.2360000  56.0000000  37.4110000  54.3490000  56.2920000
  76.6390000  31.1110000  78.6960000  76.4320000  31.0000000  79.6230000
  75.8000000  31.0000000  78.2470000  37.0670000  88.9540000  61.9100000
  36.4060000  89.0000000  61.2200000  36.7670000  88.2480000  62.4830000
  50.1140000  44.9090000  92.9820000  49.2060000  45.1680000  93.1400000
  50.6330000  45.5270000  93.4970000  64.0870000  70.2480000  83.3220000
  63.3180000  69.6790000  83.2870000  63.7280000  71.1350000  83.3620000
  78.3220000  86.8530000  91.8770000  77.9770000  86.5580000  91.0350000
  78.1350000  86.1320000  92.4790000  85.4080000  57.1930000  72.5470000
  85.8620000  57.6490000  71.8390000  85.0240000  57.8930000  73.0760000
  49.3270000  31.0000000  69.7430000  49.4760000  31.0020000  70.6880000
  48.7920000  31.7780000  69.5820000  65.6500000  51.9910000  75.5270000
  66.0690000  51.1450000  75.3740000  65.3700000  51.9590000  76.4420000
  33.3840000  73.5550000  91.5090000  34.1340000  72.9670000  91.4180000
  32.6630000  72.9850000  91.7770000  49.1450000  35.7450000  56.0580000
  49.9630000  36.2340000  56.1430000  48.4670000  36.4180000  56.0000000
  31.0370000  44.0340000  77.3340000  31.9710000  43.8290000  77.3210000
  31.0000000  44.9850000  77.4370000  88.3640000  44.3150000  85.8910000
  89.0000000  43.6150000  85.7430000  88.8850000  45.1190000  85.8800000
  72.1170000  39.9280000  70.8450000  71.3320000  40.4700000  70.7670000
  71.7850000  39.0330000  70.9190000  71.3240000  37.5360000  94.1550000
  71.2160000  37.5350000  93.2040000  70.8550000  36.7550000  94.4500000
  57.5920000  81.2340000  77.7530000  58.3190000  81.3490000  78.3640000
  57.5140000  80.2850000  77.6490000  66.3870000  34.8390000  56.0200000
  66.7830000  35.7110000  56.0000000  65.4440000  35.0040000  56.0460000
  38.1860000  37.5690000  59.0100000  38.0930000  36.6460000  58.7720000
  38.6140000  37.9700000  58.2530000  39.6530000  42.0510000  91.9260000
  40.3870000  42.5590000  92.2730000  38.9640000  42.6990000  91.7760000
  73.5710000  57.0920000  77.2010000  73.3370000  57.5880000  77.9860000
  73.0500000  56.2900000  77.2610000  73.9840000  65.4690000  73.7550000
  74.2400000  65.8890000  74.5760000  73.5480000  64.6610000  74.0250000
  37.2510000  37.9540000  85.0700000  36.7220000  37.3920000  85.6350000
  38.0790000  38.0570000  85.5420000  40.7650000  32.4730000  77.7540000
  40.5980000  32.8890000  78.6000000  40.2860000  31.6450000  77.7960000
  51.5820000  40.2360000  86.7490000  51.3520000  41.0320000  86.2710000
  52.5340000  40.1720000  86.6660000  64.9740000  67.4870000  95.1700000
  64.1940000  67.8940000  94.7930000  64.6700000  66.6380000  95.4920000
  87.5550000  60.4650000  89.4050000  87.1000000  59.6650000  89.6680000
  88.4330000  60.3760000  89.7760000  60.7200000  86.0840000  96.5000000
  61.5110000  85.5450000  96.4990000  60.8080000  86.6380000  95.7240000
  76.9100000  86.0940000  74.9710000  77.2100000  86.8930000  74.5390000
  76.7660000  86.3530000  75.8820000  83.9640000  84.0980000  70.0040000
  84.2460000  83.8430000  70.8820000  84.7680000  84.0930000  69.4830000
  68.4450000  85.2720000  94.1230000  67.6100000  85.6850000  94.3400000
  68.2770000  84.3330000  94.2060000  88.2640000  72.9910000  96.4990000
  89.0000000  72.3790000  96.5000000  87.4870000  72.4320000  96.4950000
  85.1370000  55.4540000  92.6080000  85.1140000  56.4090000  92.6710000
  85.1950000  55.2770000  91.6690000  77.1780000  54.7820000  87.2330000
  78.0760000  55.0710000  87.0760000  76.8220000  55.4260000  87.8460000
  54.7350000  76.8710000  71.0880000  54.4150000  77.4120000  71.8100000
  54.4790000  75.9790000  71.3250000  31.0620000  67.2090000  83.2760000
  31.0350000  66.3130000  83.6090000  31.0000000  67.7580000  84.0580000
  40.1950000  71.1450000  66.9460000  40.6540000  70.3060000  66.9570000
  40.0980000  71.3780000  67.8690000  46.0820000  46.7570000  58.6320000
  46.6280000  47.3590000  58.1270000  45.3580000  46.5380000  58.0440000
  55.6760000  75.7680000  62.9460000  54.7460000  75.5740000  62.8300000
  55.8320000  76.5350000  62.3940000  70.0840000  38.1650000  79.2130000
  69.7780000  38.4810000  78.3630000  70.9090000  37.7190000  79.0210000
  59.2270000  37.5290000  79.3580000  59.5020000  36.8530000  79.9760000
  59.2850000  38.3460000  79.8540000  55.4220000  49.9440000  76.5960000
  56.2740000  49.5350000  76.7480000  55.6310000  50.8320000  76.3050000
  48.9000000  86.5500000  85.0490000  49.2710000  85.9130000  85.6600000
  48.3460000  86.0290000  84.4670000  58.2740000  86.0640000  56.0430000
  58.7770000  85.2510000  56.0000000  57.3650000  85.7790000  56.1370000
  82.5600000  65.4440000  67.0340000  81.6820000  65.0620000  67.0280000
  83.0830000  64.8510000  66.4930000  43.4900000  77.5200000  91.8150000
  42.6250000  77.7210000  91.4600000  43.8700000  78.3750000  92.0210000
  44.5340000  52.2610000  58.4210000  44.1900000  53.0300000  58.8750000
  45.4810000  52.3990000  58.3970000  44.4650000  88.9630000  68.4830000
  44.0810000  89.0000000  67.6070000  43.7130000  88.9990000  69.0760000
  33.6560000  73.9990000  67.4880000  33.3040000  74.7400000  66.9960000
  33.9620000  74.3810000  68.3110000  41.5900000  48.4840000  95.1360000
  42.0200000  49.3340000  95.2220000  40.6550000  48.6800000  95.2040000
  39.7540000  65.9490000  58.4400000  39.3010000  66.6300000  58.9370000
  40.6090000  66.3300000  58.2380000  54.8590000  89.0000000  83.4880000
  55.0840000  88.1220000  83.7950000  54.2950000  88.8520000  82.7290000
  74.3650000  64.4780000  65.8300000  74.9810000  65.1680000  66.0770000
  73.5460000  64.7230000  66.2610000  71.2400000  81.2000000  65.0320000
  70.5790000  80.8830000  64.4160000  72.0650000  81.1400000  64.5510000
  46.3210000  39.8250000  83.1020000  45.8720000  39.9080000  83.9430000
  47.0900000  40.3890000  83.1830000  63.1610000  31.0120000  73.1330000
  63.5990000  31.5280000  73.8090000  63.7800000  31.0000000  72.4010000
  81.6710000  79.4710000  72.4790000  82.0500000  79.6930000  71.6290000
  81.1030000  78.7210000  72.3010000  46.1760000  46.7340000  83.5600000
  46.3830000  47.6120000  83.8780000  45.3330000  46.5250000  83.9630000
  33.3910000  68.0050000  85.1710000  33.3060000  67.1150000  84.8290000
  33.3420000  68.5660000  84.3960000  79.3940000  79.2020000  81.3810000
  79.9650000  79.9310000  81.6200000  79.9640000  78.4330000  81.4030000
  66.2670000  38.8720000  73.7190000  67.0030000  38.5910000  73.1760000
  66.3800000  39.8180000  73.8070000  68.7960000  36.1630000  77.2020000
  69.0190000  35.9960000  78.1170000  68.1400000  36.8600000  77.2390000
  33.0820000  77.0230000  56.9330000  33.2950000  77.0310000  56.0000000
  32.9210000  76.1000000  57.1340000  58.9040000  31.0000000  90.8530000
  58.7290000  31.7930000  91.3590000  58.3240000  31.0660000  90.0940000
  42.7750000  73.8970000  64.0200000  42.7010000  74.3350000  64.8680000
  43.5280000  73.3130000  64.1160000  42.8280000  62.3780000  90.7850000
  42.2450000  62.5350000  91.5280000  43.3720000  61.6390000  91.0580000
  88.8520000  67.1480000  61.1160000  88.9960000  68.0740000  61.3130000
  87.9040000  67.0710000  61.0040000  32.7770000  34.8200000  96.5000000
  33.4720000  35.4780000  96.4980000  33.2390000  33.9820000  96.5000000
  59.9020000  59.5610000  70.6810000  60.8170000  59.7730000  70.8620000
  59.4390000  60.3940000  70.7750000  88.9710000  55.9160000  95.4560000
  89.0000000  56.8710000  95.3910000  88.5620000  55.7460000  96.3050000
  44.6380000  73.5390000  87.1320000  43.9030000  72.9830000  86.8740000
  44.5420000  74.3270000  86.5960000  75.2870000  38.3100000  96.5000000
  74.6670000  39.0380000  96.4960000  74.7370000  37.5260000  96.4850000
  66.9540000  53.3700000  72.1750000  67.0370000  54.3090000  72.0120000
  67.5780000  52.9650000  71.5730000  45.5330000  45.2960000  74.0000000
  45.1350000  44.6490000  73.4180000  46.4750000  45.1990000  73.8590000
  39.9100000  74.0050000  62.1180000  39.2230000  73.6540000  62.6850000
  40.5880000  73.3290000  62.1150000  42.0670000  34.6940000  56.5730000
  42.8500000  34.6650000  56.0240000  41.3610000  34.3930000  56.0000000
  89.0000000  34.4590000  74.2520000  88.9540000  35.2520000  74.7860000
  88.7650000  33.7510000  74.8520000  56.5910000  40.1010000  87.4350000
  56.7060000  40.9570000  87.8470000  56.3480000  40.3010000  86.5310000
  76.0650000  32.8920000  76.6350000  76.7410000  32.2900000  76.3240000
  76.3150000  33.7420000  76.2720000  33.9680000  62.8430000  60.9900000
  33.8810000  63.3160000  60.1620000  33.9190000  63.5240000  61.6620000
  80.0980000  72.8330000  69.0640000  79.3880000  72.7820000  69.7040000
  79.6800000  72.6320000  68.2260000  38.9170000  84.7740000  87.4140000
  38.6500000  84.0250000  86.8810000  39.7280000  85.0810000  87.0060000
  57.8270000  78.1210000  71.1950000  58.5370000  77.5750000  71.5320000
  58.0530000  79.0080000  71.4740000  82.9170000  31.0100000  81.5980000
  82.6240000  31.0000000  80.6870000  82.1640000  31.3430000  82.0880000
  59.9670000  36.0320000  90.7150000  60.6910000  35.5440000  91.1070000
  59.2050000  35.4650000  90.8290000  31.8470000  70.0810000  85.7080000
  32.4610000  70.3450000  86.3930000  31.0000000  70.0300000  86.1510000
  40.7730000  88.0630000  79.6620000  40.5990000  89.0000000  79.7450000
  40.1900000  87.6530000  80.3010000  63.3150000  78.5040000  56.0000000
  62.6320000  79.1740000  56.0080000  64.1340000  78.9960000  56.0590000
  88.8470000  65.6020000  67.5940000  89.0000000  65.7970000  66.6700000
  88.8880000  66.4540000  68.0300000  77.8020000  55.6000000  83.0540000
  77.8990000  55.2320000  82.1760000  77.2380000  54.9780000  83.5140000
  88.9830000  33.9540000  61.6380000  88.6460000  34.8480000  61.5790000
  88.9470000  33.7450000  62.5720000  68.6820000  68.5920000  58.2180000
  68.5300000  69.5280000  58.3510000  69.6220000  68.5230000  58.0520000
  31.2970000  31.4920000  59.0280000  31.0000000  31.0000000  59.7930000
  32.0530000  31.0000000  58.7060000  54.5550000  47.1390000  68.3310000
  53.7770000  47.4440000  68.7970000  55.1890000  46.9460000  69.0220000
  68.0440000  59.5510000  82.7540000  67.5940000  58.7730000  83.0820000
  67.3510000  60.2040000  82.6530000  60.4300000  69.1060000  68.7960000
  59.9860000  69.1080000  67.9480000  61.2470000  69.5820000  68.6400000
  85.4420000  89.0010000  96.5000000  86.3820000  88.9370000  96.3310000
  85.0380000  88.9590000  95.6330000  57.8090000  56.2870000  79.4230000
  57.0420000  56.8590000  79.4170000  58.5410000  56.8630000  79.2000000
  66.7050000  31.0360000  59.6530000  66.9880000  31.0460000  58.7380000
  67.5190000  31.0000000  60.1560000  59.5190000  41.8540000  79.7980000
  60.1540000  41.2170000  80.1240000  59.4310000  42.4910000  80.5070000
  54.5630000  74.4760000  77.8880000  54.2400000  75.3760000  77.8520000
  55.5040000  74.5520000  77.7280000  51.6710000  40.4520000  89.5150000
  51.4140000  39.5440000  89.6750000  52.5560000  40.3910000  89.1560000
  85.6640000  87.4770000  64.3510000  85.9190000  88.2390000  63.8310000
  86.3730000  87.3720000  64.9860000  83.3760000  45.4500000  67.1030000
  84.1080000  46.0610000  67.0260000  83.7830000  44.5840000  67.0940000
  64.1410000  56.2410000  70.6510000  63.2300000  56.3910000  70.3990000
  64.6530000  56.6110000  69.9310000  67.0490000  77.0600000  63.4770000
  66.3430000  77.1400000  64.1180000  67.0650000  76.1300000  63.2520000
  76.5520000  83.0140000  56.5850000  77.2370000  83.3380000  56.0000000
  75.9040000  82.6190000  56.0000000  68.5150000  31.4640000  73.4530000
  68.3900000  31.0000000  72.6250000  69.2450000  31.0100000  73.8750000
  71.6610000  71.8030000  96.4360000  71.0700000  71.9610000  95.7000000
  72.1830000  72.6030000  96.5000000  85.9560000  88.2860000  56.0000000
  85.4250000  87.4900000  56.0200000  85.3210000  89.0000000  56.0580000
  34.1200000  77.0100000  65.3720000  35.0700000  77.0650000  65.2700000
  33.8340000  76.4460000  64.6530000  85.6420000  44.6050000  68.8160000
  84.9650000  44.2970000  69.4180000  85.6480000  45.5560000  68.9300000
  86.8230000  70.5970000  60.9920000  86.2540000  71.2150000  61.4500000
  87.2280000  70.0810000  61.6900000  65.9170000  61.7260000  65.0930000
  66.1050000  62.5830000  65.4740000  66.2770000  61.0990000  65.7210000
  39.1900000  77.6530000  56.0140000  38.2860000  77.9670000  56.0000000
  39.1130000  76.6980000  56.0250000  64.8830000  31.0470000  68.8820000
  64.4380000  31.0000000  68.0360000  64.1740000  31.0350000  69.5260000
  40.4790000  64.9980000  61.6080000  39.9940000  64.8660000  62.4220000
  41.3960000  64.8620000  61.8500000  57.4000000  88.2430000  69.6890000
  56.8140000  89.0000000  69.7140000  58.2800000  88.6210000  69.6720000
  54.5460000  36.6120000  81.3180000  53.9500000  37.3270000  81.5400000
  55.2360000  36.6610000  81.9800000  45.0010000  70.7610000  93.6650000
  44.2480000  70.2530000  93.3640000  44.7430000  71.6730000  93.5350000
  37.8370000  84.0270000  63.2810000  38.7440000  84.3310000  63.3070000
  37.8450000  83.3000000  62.6580000  55.4260000  63.6780000  65.0990000
  55.4540000  62.7330000  65.2460000  55.7140000  64.0590000  65.9300000
  78.9540000  48.9230000  64.0410000  79.6870000  48.7790000  64.6380000
  78.8050000  49.8680000  64.0670000  70.9350000  61.6120000  79.4160000
  70.4830000  62.4530000  79.3570000  70.2330000  60.9610000  79.4200000
  36.6230000  35.9230000  56.7590000  37.2050000  35.9040000  56.0000000
  36.6690000  35.0370000  57.1190000  51.0390000  60.4040000  79.1410000
  51.1230000  60.3040000  78.1930000  50.3040000  61.0070000  79.2550000
  48.5930000  35.9260000  65.5890000  49.2770000  35.9890000  66.2550000
  48.4260000  36.8330000  65.3300000  71.1780000  48.2910000  84.8960000
  70.4250000  47.7430000  85.1180000  71.9230000  47.8550000  85.3100000
  40.4680000  44.5640000  88.0560000  41.2670000  45.0890000  88.0140000
  40.5110000  44.0000000  87.2840000  56.6460000  38.9800000  71.5280000
  56.6020000  39.5990000  70.8000000  57.0290000  38.1890000  71.1480000
  85.9160000  78.6280000  69.5440000  86.5880000  78.3370000  70.1610000
  86.4080000  78.9450000  68.7860000  80.6230000  47.3200000  78.0970000
  81.5700000  47.4020000  77.9920000  80.3080000  48.2220000  78.1570000
  43.4360000  86.9050000  56.1680000  44.1200000  86.2440000  56.2660000
  42.6190000  86.4050000  56.1490000  63.4580000  80.1510000  94.5220000
  64.0170000  79.4320000  94.2280000  63.9570000  80.9420000  94.3200000
  66.9280000  67.2570000  65.0040000  66.1040000  67.1570000  64.5270000
  67.3750000  67.9790000  64.5620000  34.2930000  50.9650000  84.8210000
  33.7640000  50.3330000  84.3350000  34.2380000  50.6740000  85.7320000
  88.4720000  61.9460000  80.4980000  88.9970000  62.0280000  79.7030000
  88.8220000  62.6140000  81.0880000  85.0430000  50.3340000  62.3200000
  85.7550000  49.7620000  62.0350000  85.0640000  51.0670000  61.7040000
  71.2700000  64.8360000  56.0120000  70.8570000  63.9730000  56.0410000
  70.5370000  65.4530000  56.0000000  61.6720000  36.4980000  83.9380000
  60.7200000  36.4970000  83.8430000  61.9060000  35.5720000  84.0170000
  78.5630000  36.6510000  75.6370000  78.6080000  36.3740000  74.7220000
  79.2340000  36.1300000  76.0790000  79.2640000  42.3170000  65.5750000
  79.1800000  42.4800000  64.6360000  80.0610000  41.7920000  65.6570000
  58.3760000  38.9740000  73.4210000  58.6900000  39.0370000  74.3230000
  58.9980000  39.4950000  72.9130000  46.0350000  56.6410000  56.0530000
  45.2120000  56.1530000  56.0360000  45.7700000  57.5600000  56.0000000
  67.8520000  76.5460000  88.6500000  68.5250000  76.4760000  87.9740000
  67.9210000  77.4470000  88.9660000  62.1830000  48.4010000  60.4630000
  62.0950000  48.1060000  59.5570000  62.8950000  47.8690000  60.8210000
  55.8520000  83.7510000  81.4840000  54.9930000  83.9260000  81.8660000
  56.2200000  84.6180000  81.3130000  67.3530000  33.8770000  77.0920000
  67.7840000  33.5970000  77.9000000  66.5100000  33.4220000  77.1000000
  51.8560000  62.5420000  93.5350000  52.3360000  61.7200000  93.6350000
  52.2480000  62.9570000  92.7660000  69.6760000  42.6850000  82.6630000
  68.9890000  42.0350000  82.8060000  69.7090000  42.7940000  81.7120000
  76.1000000  41.3550000  76.9660000  76.9540000  40.9270000  77.0260000
  75.9790000  41.5180000  76.0300000  57.2250000  57.3900000  89.2940000
  56.7100000  57.8340000  88.6220000  56.5810000  56.8980000  89.8040000
  51.9990000  59.2360000  62.1570000  51.2670000  59.5340000  61.6180000
  51.7290000  58.3730000  62.4730000  70.5800000  57.5670000  74.7140000
  70.4630000  56.7910000  74.1680000  70.2470000  57.3090000  75.5740000
  31.0000000  76.7060000  94.3450000  31.6760000  76.0620000  94.1370000
  31.3950000  77.2590000  95.0200000  34.9990000  44.1220000  74.7100000
  34.1710000  43.9870000  74.2510000  35.2450000  45.0230000  74.5020000
  56.3780000  80.3130000  81.0650000  55.6740000  80.0310000  80.4810000
  57.0660000  79.6580000  80.9450000  60.5190000  50.7980000  94.1760000
  60.5330000  51.7490000  94.2770000  59.9220000  50.4930000  94.8590000
  63.0810000  33.4050000  67.8980000  62.3980000  34.0760000  67.8810000
  63.9010000  33.8990000  67.9200000  55.0320000  34.1930000  78.2080000
  54.5190000  34.5250000  78.9440000  54.3780000  33.8880000  77.5770000
  80.1500000  50.7430000  95.8440000  79.4060000  50.7750000  95.2430000
  79.9800000  51.4430000  96.4740000  71.6880000  69.9050000  56.0000000
  71.5650000  68.9570000  56.0430000  70.8000000  70.2630000  56.0100000
  35.4160000  47.0850000  87.3170000  35.6000000  46.4610000  86.6140000
  36.1470000  46.9810000  87.9270000  88.6380000  31.0000000  96.2090000
  87.7300000  31.0710000  96.5000000  88.9880000  31.8880000  96.2940000
  74.6070000  56.1900000  70.6480000  75.0320000  57.0400000  70.7600000
  75.3200000  55.5540000  70.7170000  72.5430000  39.7770000  56.9330000
  72.7550000  39.3290000  56.1140000  73.3670000  39.7870000  57.4210000
  65.4870000  39.5000000  61.9520000  65.0780000  40.2420000  61.5070000
  64.9100000  38.7590000  61.7650000  41.3150000  67.2160000  78.1190000
  41.4210000  66.7720000  77.2790000  40.3880000  67.1080000  78.3330000
  77.3130000  38.1150000  60.3170000  77.3340000  37.1580000  60.3330000
  78.2340000  38.3760000  60.3090000  67.7950000  51.1240000  90.7030000
  68.6150000  50.7550000  91.0310000  68.0610000  51.9040000  90.2150000
  88.6670000  46.8470000  74.5460000  87.9250000  47.4360000  74.6850000
  88.2700000  45.9830000  74.4340000  88.8820000  67.0320000  63.8900000
  87.9740000  67.2890000  63.7320000  88.8450000  66.0830000  64.0130000
  45.0880000  65.9660000  85.6420000  45.0870000  66.8810000  85.9220000
  44.1880000  65.6710000  85.7830000  60.5020000  89.0000000  82.6680000
  60.3440000  88.9600000  83.6110000  61.4560000  88.9920000  82.5840000
  43.6080000  57.0060000  64.4250000  43.0250000  56.2550000  64.3190000
  43.0820000  57.6530000  64.8960000  48.2510000  56.2880000  67.0390000
  48.5800000  57.1870000  67.0530000  47.4130000  56.3310000  67.4990000
  56.4650000  44.1300000  56.0000000  56.0940000  43.3360000  56.3850000
  56.2250000  44.8270000  56.6110000  74.5490000  72.9560000  64.2060000
  75.3210000  72.4780000  64.5080000  74.8990000  73.7680000  63.8380000
  37.1690000  73.9520000  86.5140000  36.4340000  74.5640000  86.5330000
  36.9060000  73.2790000  85.8850000  86.9890000  63.5990000  89.6160000
  86.5260000  64.2140000  90.1840000  87.2170000  62.8670000  90.1890000
  51.7010000  77.3480000  86.0420000  51.6010000  78.0970000  85.4540000
  50.8050000  77.0860000  86.2510000  32.9820000  70.5210000  72.6000000
  32.1790000  70.4510000  72.0850000  33.1280000  71.4630000  72.6920000
  86.5380000  84.8320000  79.8830000  85.6950000  84.6450000  79.4680000
  87.1780000  84.7440000  79.1760000  80.6380000  43.4710000  70.8310000
  81.1210000  43.0080000  70.1460000  81.3170000  43.8690000  71.3760000
  59.3240000  89.0000000  67.3460000  58.4320000  88.9590000  67.0000000
  59.8840000  88.9310000  66.5720000  65.3710000  81.3400000  87.8900000
  66.0650000  80.7220000  88.1190000  64.5730000  80.9470000  88.2450000
  58.9130000  51.0140000  90.3630000  58.9500000  51.7870000  90.9260000
  59.5330000  51.2030000  89.6570000  47.0970000  48.4630000  75.8560000
  47.8110000  48.2400000  76.4530000  46.3120000  48.4470000  76.4050000
  83.2400000  45.2160000  76.9500000  83.1870000  45.3600000  77.8940000
  83.1500000  46.0890000  76.5670000  58.9330000  48.6520000  66.3480000
  58.1240000  49.0190000  66.7030000  58.9180000  48.8900000  65.4210000
  77.8260000  41.8260000  79.6130000  77.9510000  41.2540000  80.3700000
  76.8990000  41.7330000  79.3920000  51.6910000  33.1680000  73.1140000
  51.1720000  32.7110000  72.4530000  51.0770000  33.3340000  73.8290000
  53.8400000  51.7200000  84.5280000  53.5610000  51.2380000  85.3070000
  53.3960000  52.5650000  84.5970000  85.9630000  62.2140000  67.6890000
  85.8110000  61.2820000  67.5370000  86.7880000  62.2470000  68.1740000
  50.8830000  54.8710000  95.7970000  50.6420000  55.7740000  95.5870000
  51.4150000  54.5870000  95.0540000  74.1510000  53.7620000  68.0690000
  74.4910000  54.4610000  68.6270000  73.5780000  54.2100000  67.4460000
  44.7690000  75.8670000  84.1030000  44.0050000  76.3470000  84.4250000
  44.4030000  75.1750000  83.5530000  31.6300000  34.7100000  57.1510000
  31.0000000  34.9920000  56.4890000  31.3960000  33.7990000  57.3320000
  72.0990000  37.7120000  58.2720000  71.6350000  36.8960000  58.0890000
  73.0200000  37.4570000  58.3290000  73.3890000  49.2050000  67.4640000
  74.2870000  49.4250000  67.7100000  72.8880000  49.2950000  68.2750000
  69.4020000  58.4670000  61.0710000  68.9290000  57.6720000  60.8240000
  70.3260000  58.2350000  60.9770000  84.9250000  35.2070000  78.4980000
  84.9150000  36.1630000  78.5350000  85.2100000  35.0050000  77.6060000
  68.5410000  65.0890000  75.7440000  68.6230000  65.8120000  75.1220000
  68.5950000  64.3000000  75.2030000  83.6260000  74.8900000  88.9700000
  83.3020000  75.1750000  88.1160000  84.4760000  74.4890000  88.7820000
  60.0850000  31.0110000  76.7430000  59.4720000  31.1450000  77.4660000
  60.9480000  31.0000000  77.1600000  70.8960000  48.3460000  62.0850000
  70.9980000  49.1530000  62.5880000  71.6790000  48.3050000  61.5350000
  50.5040000  41.0940000  78.2510000  49.7820000  40.7870000  78.7990000
  51.2530000  41.1430000  78.8460000  58.5140000  88.6010000  96.5000000
  57.7850000  89.0000000  96.0250000  59.2960000  89.0000000  96.1180000
  81.8010000  48.6520000  93.8620000  82.3590000  49.3210000  93.4660000
  80.9770000  49.1040000  94.0440000  88.8950000  47.0210000  65.2620000
  88.9130000  46.3500000  65.9440000  87.9640000  47.2040000  65.1310000
  39.6140000  52.0280000  56.6820000  39.3540000  52.5100000  57.4670000
  39.6800000  52.6960000  56.0000000  39.4000000  52.1390000  84.8080000
  38.8580000  51.3660000  84.9620000  40.2970000  51.8040000  84.7920000
  88.9420000  45.8610000  88.8400000  88.9990000  45.1230000  89.4470000
  89.0000000  46.6360000  89.3990000  41.6780000  59.8830000  56.0200000
  40.7250000  59.9600000  56.0000000  41.9900000  60.7850000  56.0990000
  89.0000000  34.1950000  80.4530000  88.1080000  33.9870000  80.1740000
  88.9040000  34.4990000  81.3560000  56.9190000  54.5450000  87.7260000
  57.2510000  55.4430000  87.7270000  56.8970000  54.2990000  86.8000000
  85.3230000  77.5340000  58.4640000  85.7490000  76.7120000  58.2240000
  86.0380000  78.1680000  58.5190000  64.9740000  39.5590000  69.6990000
  65.6180000  38.8900000  69.4710000  64.1650000  39.2670000  69.2770000
  64.4030000  42.1600000  92.0770000  63.4640000  42.2640000  91.9290000
  64.7620000  43.0420000  91.9760000  69.9940000  31.0130000  61.3790000
  69.8550000  31.9110000  61.0790000  70.9010000  31.0000000  61.6860000
  37.9600000  77.4060000  93.7150000  38.5520000  76.9480000  94.3120000
  37.8520000  78.2740000  94.1040000  81.9130000  83.0270000  87.7370000
  81.1720000  82.4210000  87.7250000  81.5130000  83.8950000  87.7970000
  42.4240000  43.6890000  59.8400000  41.5500000  43.3250000  59.7050000
  42.9900000  42.9240000  59.9450000  82.1500000  72.3890000  63.3260000
  81.3840000  71.8180000  63.3980000  82.8500000  71.8120000  63.0200000
  59.6270000  88.8480000  63.2590000  59.3050000  88.7120000  64.1500000
  60.5660000  89.0000000  63.3640000  64.3970000  37.6040000  96.0890000
  64.3100000  37.2460000  95.2060000  65.0750000  37.0680000  96.5000000
  68.8420000  31.0120000  56.0000000  67.8850000  31.0330000  56.0010000
  69.0830000  31.0000000  56.9270000  45.3990000  37.2660000  96.5000000
  45.2830000  38.2060000  96.3680000  45.5800000  36.9210000  95.6250000
  81.8590000  57.0490000  89.3260000  81.4860000  56.4190000  89.9420000
  81.1110000  57.3560000  88.8130000  36.5070000  78.5170000  75.3420000
  36.3750000  77.5810000  75.1910000  37.3110000  78.7260000  74.8660000
  47.1400000  41.0170000  68.3830000  47.8210000  41.1130000  67.7180000
  47.3360000  40.1800000  68.8070000  33.3840000  52.7630000  83.0620000
  32.7990000  53.4690000  83.3370000  34.1240000  53.2110000  82.6510000
  60.7720000  88.6950000  71.8700000  60.8500000  87.7490000  71.7460000
  60.3000000  89.0000000  71.0940000  31.4240000  87.3130000  88.9720000
  31.0000000  86.4610000  88.8700000  31.0140000  87.8670000  88.3070000
  62.1110000  80.4380000  86.9990000  61.5130000  80.2650000  87.7260000
  62.2250000  81.3880000  87.0030000  48.7570000  49.8760000  95.6010000
  48.3610000  49.1900000  95.0620000  48.5370000  49.6320000  96.5000000
  68.8480000  46.6630000  83.5060000  68.3130000  46.6510000  84.3000000
  68.7190000  47.5400000  83.1430000  38.5600000  47.6750000  69.4070000
  37.6690000  47.4070000  69.6300000  38.8090000  47.1010000  68.6820000
  41.4400000  47.8040000  68.2590000  41.2520000  47.5550000  69.1630000
  42.2830000  47.3930000  68.0670000  57.7920000  62.6900000  66.1710000
  58.1310000  61.9560000  66.6840000  58.2590000  62.6360000  65.3370000
  64.9820000  51.0870000  69.9810000  64.2020000  51.3330000  69.4840000
  65.5930000  51.8120000  69.8430000  35.7670000  55.3540000  81.3490000
  35.8590000  54.4020000  81.3020000  34.8620000  55.4940000  81.6290000
  84.2490000  50.5570000  71.6580000  85.1280000  50.8230000  71.3900000
  83.7860000  50.3970000  70.8350000  52.0710000  49.2820000  96.3600000
  52.5380000  50.1040000  96.2110000  51.1610000  49.5440000  96.4990000
  45.2400000  67.2420000  93.5640000  44.8330000  66.3780000  93.6270000
  46.1740000  67.0590000  93.4550000  31.5850000  72.4830000  89.2910000
  31.0000000  73.1640000  89.6230000  31.0000000  71.8390000  88.8900000
  64.4440000  52.8490000  79.7270000  63.7300000  52.8630000  80.3640000
  65.1620000  53.3100000  80.1610000  43.9980000  63.9020000  57.9850000
  44.4350000  63.1970000  58.4600000  44.7120000  64.4510000  57.6590000
  63.6090000  66.5340000  72.6360000  63.0230000  66.2860000  73.3510000
  64.3100000  67.0290000  73.0600000  65.8750000  64.9210000  56.1540000
  65.0140000  64.5330000  56.0000000  66.4730000  64.1740000  56.1880000
  62.8850000  56.4170000  60.8110000  63.0080000  57.3600000  60.9160000
  63.6540000  56.0270000  61.2290000  46.6590000  73.2190000  65.1300000
  46.1850000  72.6890000  65.7720000  46.0240000  73.3740000  64.4310000
  48.4710000  77.4320000  93.9550000  47.9090000  76.6580000  93.9800000
  49.3280000  77.1170000  94.2420000  31.0000000  83.6420000  91.1460000
  31.0100000  82.6860000  91.1170000  31.0810000  83.9120000  90.2310000
  51.7240000  61.2630000  72.1740000  51.8200000  61.7010000  73.0190000
  52.4290000  60.6150000  72.1580000  44.5220000  74.9690000  80.0150000
  44.8100000  75.1520000  79.1210000  45.3270000  74.7520000  80.4860000
  85.1390000  39.5100000  72.9250000  85.5860000  40.3510000  73.0170000
  85.8460000  38.8660000  72.8830000  58.1700000  40.0110000  63.4660000
  58.1570000  40.9070000  63.8020000  58.9980000  39.9460000  62.9890000
  67.3890000  44.2070000  84.1900000  67.7010000  44.3510000  83.2970000
  67.3940000  43.2550000  84.2960000  39.5710000  74.9250000  88.2820000
  39.0210000  74.3780000  88.8420000  38.9700000  75.2810000  87.6280000
  61.1230000  47.3050000  56.1220000  61.0720000  46.3570000  56.0000000
  62.0600000  47.5000000  56.0960000  79.3090000  75.9680000  96.5000000
  78.3770000  75.8060000  96.3570000  79.4140000  76.9080000  96.3500000
  75.0100000  87.5290000  78.9440000  74.8020000  88.2150000  78.3100000
  75.2830000  86.7830000  78.4090000  78.4810000  76.7840000  66.9250000
  78.3450000  77.0670000  67.8290000  78.0440000  77.4520000  66.3970000
  68.0900000  88.5560000  61.8590000  68.8680000  89.0000000  61.5210000
  67.3570000  89.0000000  61.4320000  84.8040000  41.3920000  56.0810000
  85.4370000  40.6790000  56.0000000  83.9500000  40.9640000  56.0140000
  35.3190000  36.9720000  87.8100000  35.6770000  36.1310000  87.5260000
  34.7120000  37.2220000  87.1130000  70.1160000  86.5870000  58.3340000
  69.8050000  85.7810000  57.9210000  71.0090000  86.3830000  58.6140000
  39.6640000  37.7500000  62.9050000  40.5300000  37.3460000  62.9610000
  39.1520000  37.3150000  63.5870000  45.8930000  36.3530000  61.4020000
  46.6780000  36.4610000  60.8660000  45.6450000  37.2450000  61.6470000
  38.6750000  56.9690000  73.4520000  39.2400000  57.7370000  73.5360000
  39.2810000  56.2310000  73.3880000  59.3460000  49.6490000  69.8540000
  58.8970000  49.3800000  69.0530000  58.8770000  50.4340000  70.1400000
  81.5500000  32.1760000  72.4040000  81.7450000  33.1090000  72.4940000
  82.3270000  31.8090000  71.9820000  68.3950000  31.0170000  77.8850000
  67.4530000  31.0000000  77.7170000  68.7940000  31.0200000  77.0140000
  63.9640000  74.3470000  95.4990000  63.6750000  73.7800000  94.7840000
  64.6770000  73.8630000  95.9170000  79.2150000  86.7240000  85.5130000
  78.8940000  85.8420000  85.7000000  80.1660000  86.6270000  85.4580000
  40.7280000  36.0970000  89.8530000  40.6760000  37.0230000  90.0870000
  41.4890000  35.7700000  90.3340000  36.9280000  55.5380000  77.9900000
  36.7770000  55.7830000  78.9030000  37.6150000  56.1350000  77.6920000
  65.6640000  35.6540000  70.1820000  65.8390000  36.5690000  70.4000000
  66.5300000  35.2690000  70.0470000  47.6590000  69.5460000  66.0410000
  47.5490000  70.2320000  65.3830000  48.3210000  68.9620000  65.6710000
  59.8310000  68.0340000  89.4820000  59.4520000  67.1990000  89.2090000
  59.7410000  68.0380000  90.4360000  85.6020000  47.7560000  64.5110000
  84.7500000  48.0500000  64.8330000  85.5420000  46.8000000  64.5120000
  71.5210000  41.9490000  89.4810000  70.6330000  41.6420000  89.6660000
  71.4220000  42.8900000  89.3310000  31.9120000  35.3200000  71.5490000
  32.2990000  36.1360000  71.8670000  31.0000000  35.5440000  71.3610000
  56.6640000  64.8870000  60.8770000  55.7260000  64.9640000  61.0490000
  56.9350000  65.7680000  60.6200000  72.5430000  54.4120000  86.9970000
  72.4110000  55.0550000  87.6930000  73.0280000  54.8860000  86.3210000
  57.3970000  88.9510000  76.6550000  57.5630000  88.9960000  77.5960000
  58.2660000  89.0000000  76.2550000  85.7630000  55.3430000  61.0900000
  85.3470000  55.8270000  60.3770000  86.6740000  55.6360000  61.0790000
  42.5900000  45.6680000  95.8680000  43.4270000  45.8740000  95.4520000
  41.9310000  46.0100000  95.2640000  70.2250000  75.6170000  57.4460000
  70.1850000  76.3970000  57.9990000  70.1570000  74.8840000  58.0580000
  42.2830000  76.8120000  78.6010000  42.1960000  77.3910000  79.3580000
  41.3870000  76.6910000  78.2870000  64.7450000  87.1490000  72.7100000
  63.9790000  86.5880000  72.8280000  65.4840000  86.5420000  72.6700000
  55.1070000  75.6270000  82.2350000  55.9840000  75.9070000  82.4950000
  55.1870000  74.6820000  82.1030000  33.9620000  60.2030000  56.5860000
  34.4890000  59.6330000  56.0260000  33.6540000  60.8950000  56.0000000
  73.0660000  47.9450000  74.2010000  72.5870000  48.2060000  73.4150000
  73.5450000  47.1580000  73.9400000  85.2730000  80.8360000  56.5750000
  85.4190000  81.7630000  56.3880000  85.8850000  80.3750000  56.0000000
  49.4020000  36.5910000  69.4910000  49.9300000  36.7260000  70.2770000
  50.0110000  36.7320000  68.7650000  47.3690000  58.7030000  60.6830000
  46.4310000  58.8770000  60.7560000  47.4260000  57.7680000  60.4870000
  88.8670000  72.5650000  70.1830000  88.9470000  72.3490000  69.2540000
  89.0000000  71.7320000  70.6360000  37.1180000  31.9890000  61.7740000
  37.0600000  31.0690000  62.0320000  37.0250000  32.4740000  62.5940000
  51.7630000  52.4020000  80.8360000  51.7160000  51.4490000  80.7720000
  52.5780000  52.5700000  81.3110000  41.0910000  51.6790000  62.7680000
  41.7630000  51.6690000  63.4500000  40.8780000  50.7560000  62.6280000
  74.1640000  59.5120000  66.4610000  73.2150000  59.4910000  66.3410000
  74.2920000  60.0040000  67.2730000  75.2610000  82.4240000  74.3130000
  76.0640000  82.5820000  73.8180000  75.0690000  83.2620000  74.7340000
  34.3070000  79.3440000  74.2740000  34.2760000  78.4110000  74.0660000
  33.5710000  79.4820000  74.8700000  60.7670000  56.5180000  69.3560000
  59.8700000  56.6170000  69.0380000  60.8470000  57.1690000  70.0540000
  86.7420000  44.4640000  96.5000000  86.9370000  43.5430000  96.3240000
  86.4670000  44.8170000  95.6540000  64.3550000  59.9620000  58.5410000
  63.5560000  59.7890000  59.0390000  64.7680000  60.6950000  58.9970000
  50.3510000  85.8510000  78.6660000  49.8400000  85.1970000  78.1880000
  49.8850000  85.9590000  79.4960000  75.4800000  83.7150000  88.1150000
  75.0330000  84.5610000  88.1410000  74.7720000  83.0700000  88.1090000
  64.0570000  80.5810000  68.9790000  63.2960000  80.0940000  68.6640000
  63.6880000  81.3690000  69.3800000  82.1050000  65.9550000  81.1720000
  82.9920000  66.2300000  80.9410000  81.5860000  66.7580000  81.1250000
  86.3320000  81.3060000  69.9290000  86.1180000  82.1350000  70.3570000
  86.5490000  81.5500000  69.0290000  85.1230000  65.6650000  88.2780000
  85.9940000  65.3590000  88.0270000  84.5270000  64.9940000  87.9440000
  72.5540000  85.6960000  91.8340000  72.2460000  84.8100000  92.0250000
  72.0630000  85.9580000  91.0540000  31.0630000  43.3900000  96.5000000
  31.0000000  42.7360000  95.8040000  31.6810000  44.0390000  96.1650000
  41.6150000  58.4160000  74.1160000  42.3060000  58.4890000  74.7730000
  41.4770000  59.3140000  73.8120000  67.8670000  74.2670000  60.3000000
  68.7270000  74.6330000  60.0940000  67.3870000  74.9930000  60.6990000
  55.7430000  40.1900000  90.0230000  54.8490000  40.4940000  90.1780000
  56.0610000  39.9280000  90.8870000  53.8360000  74.2270000  92.7980000
  53.4040000  74.6740000  93.5250000  53.1910000  74.2420000  92.0900000
  33.1660000  56.9060000  58.8310000  33.1990000  57.7530000  58.3870000
  32.2360000  56.6760000  58.8410000  68.5470000  48.6460000  62.9870000
  67.9180000  49.1280000  63.5230000  68.4500000  49.0170000  62.1100000
  70.0680000  86.7900000  66.2220000  69.1160000  86.7380000  66.1390000
  70.3500000  85.8820000  66.3370000  57.8480000  88.8930000  89.0780000
  58.3890000  89.0000000  88.2960000  58.4700000  88.9170000  89.8050000
  65.5210000  52.9630000  66.5360000  66.0690000  53.5800000  67.0210000
  65.9040000  52.1050000  66.7210000  60.2810000  41.5110000  65.2530000
  61.0910000  41.9830000  65.0580000  60.4560000  40.6110000  64.9770000
  31.5170000  34.1520000  94.4460000  31.0000000  33.3970000  94.1670000
  31.0000000  34.9110000  94.1740000  41.4440000  82.4620000  78.9520000
  40.5200000  82.2120000  78.9470000  41.4340000  83.4190000  78.9660000
  55.1890000  53.1070000  80.8990000  56.0770000  53.4510000  80.9920000
  55.1160000  52.8790000  79.9720000  62.0710000  58.5360000  86.6080000
  62.0200000  57.7470000  87.1470000  61.9620000  59.2580000  87.2270000
  68.4740000  73.5390000  88.6350000  68.9170000  72.8080000  88.2040000
  69.1620000  74.1910000  88.7700000  60.9690000  89.0000000  89.8180000
  61.8380000  88.8250000  89.4580000  61.0780000  88.9090000  90.7650000
  88.0740000  82.9380000  81.7370000  87.9080000  82.9500000  80.7950000
  89.0010000  83.1650000  81.8200000  70.5230000  48.2920000  93.0560000
  70.8380000  49.1270000  93.4010000  71.3190000  47.7950000  92.8660000
  40.2390000  69.6670000  86.9470000  41.1200000  69.8300000  87.2840000
  39.6800000  70.2720000  87.4350000  57.7090000  49.8930000  88.3700000
  56.7650000  49.8460000  88.2150000  57.8830000  49.1910000  88.9980000
  79.7330000  82.6760000  63.5360000  80.5310000  83.0050000  63.9480000
  79.2460000  82.2640000  64.2500000  77.8600000  54.8460000  76.3680000
  78.3650000  55.1030000  77.1390000  77.2830000  54.1490000  76.6810000
  38.0780000  31.0000000  70.5730000  38.6690000  31.0880000  69.8250000
  38.6450000  31.0940000  71.3390000  76.8800000  47.4600000  81.9760000
  77.7890000  47.2070000  82.1380000  76.4160000  46.6300000  81.8660000
  65.4230000  79.4710000  71.6260000  65.1800000  79.0760000  70.7890000
  66.2030000  78.9890000  71.9020000  81.7010000  71.5880000  71.8110000
  81.0610000  72.2990000  71.7810000  81.1800000  70.8030000  71.9830000
  68.7910000  38.0000000  96.4900000  69.6500000  37.5770000  96.4860000
  68.9860000  38.9380000  96.5000000  58.2350000  76.0880000  62.9630000
  58.4590000  76.9370000  62.5810000  58.9730000  75.8820000  63.5380000
  51.9090000  88.4640000  88.4910000  52.3580000  89.0000000  87.8380000
  52.6010000  87.9250000  88.8770000  33.7350000  79.9040000  83.9100000
  32.9470000  79.3610000  83.9000000  33.4110000  80.7960000  84.0360000
  85.4980000  35.1710000  82.2270000  86.1300000  35.0300000  81.5220000
  85.2530000  34.2890000  82.5090000  84.5390000  51.0800000  79.3610000
  84.8870000  51.7410000  78.7640000  85.0370000  51.2020000  80.1700000
  76.2620000  40.0270000  62.8340000  76.6070000  40.8770000  62.5610000
  75.3180000  40.0930000  62.6890000  71.4520000  83.6320000  65.5700000
  70.5080000  83.5570000  65.4320000  71.8210000  83.6810000  64.6870000
  56.7340000  47.1050000  94.8280000  57.3690000  47.8150000  94.7320000
  57.2670000  46.3260000  94.9890000  60.1780000  31.7530000  73.7120000
  60.5070000  32.4380000  73.1310000  60.0320000  31.0000000  73.1380000
  89.0000000  64.5170000  79.4660000  88.3240000  64.7380000  78.8260000
  88.7320000  64.9730000  80.2650000  68.1470000  49.0290000  96.3650000
  67.3430000  48.5270000  96.5000000  68.5240000  48.6680000  95.5630000
  42.5730000  61.2990000  74.9800000  42.9640000  62.1720000  75.0030000
  43.1100000  60.7790000  75.5790000  52.3610000  39.6630000  77.0230000
  53.0630000  39.0130000  76.9960000  51.5570000  39.1450000  77.0810000
  65.2610000  73.5780000  63.0980000  65.7990000  72.8820000  62.7210000
  65.7290000  73.8410000  63.8900000  83.0330000  52.2340000  76.0840000
  83.2170000  51.7730000  76.9030000  83.8860000  52.5620000  75.7980000
  76.1970000  44.4780000  73.1540000  75.5160000  44.0480000  72.6370000
  77.0000000  44.0030000  72.9360000  33.9540000  40.0980000  66.6040000
  34.4690000  39.3140000  66.4130000  34.5900000  40.8130000  66.5870000
  79.2150000  41.3420000  88.0850000  78.3450000  41.4190000  88.4780000
  79.3590000  40.3980000  88.0060000  46.5420000  64.8670000  56.0070000
  47.4740000  65.0850000  56.0000000  46.0970000  65.7150000  56.0060000
  63.3860000  31.5820000  81.8210000  64.0550000  31.0000000  81.4620000
  62.6660000  31.0000000  82.0630000  72.1580000  49.9710000  76.8580000
  71.4200000  50.1900000  77.4280000  71.9200000  50.3380000  76.0060000
  62.5920000  64.2470000  90.3880000  63.0850000  63.4570000  90.6070000
  62.8750000  64.8940000  91.0350000  57.1710000  32.8600000  68.5850000
  57.5450000  33.2330000  67.7860000  57.6960000  32.0770000  68.7530000
  54.2630000  74.3050000  67.5300000  53.6900000  75.0700000  67.4980000
  54.3340000  74.0200000  66.6190000  64.7800000  33.8800000  87.8910000
  65.3030000  34.6820000  87.8730000  65.4250000  33.1730000  87.9090000
  71.0450000  89.0000000  95.8640000  71.3620000  88.8970000  94.9670000
  71.8310000  88.9270000  96.4060000  31.0570000  33.3400000  62.6070000
  31.9950000  33.4940000  62.7210000  31.0000000  32.7460000  61.8580000
  81.4820000  60.6800000 141.0630000  80.8770000  60.0670000 140.6460000
  81.1950000  61.5430000 140.7620000  42.8680000  38.1830000 163.9360000
  43.8220000  38.1430000 164.0000000  42.5870000  37.2680000 163.9630000
  45.5660000  66.2430000 152.9070000  46.5200000  66.2870000 152.9750000
  45.2580000  67.0370000 153.3440000  70.8050000  44.5370000 149.9090000
  70.9550000  44.1690000 150.7800000  71.6810000  44.6440000 149.5400000
  83.5660000  33.4710000 142.2440000  82.9650000  33.8650000 142.8750000
  83.1840000  33.6740000 141.3900000  38.6640000  56.3230000 163.9250000
  39.1490000  55.4980000 163.9390000  39.3380000  56.9990000 164.0000000
  88.1700000  58.9690000 129.5950000  89.0000000  59.3450000 129.8870000
  87.5030000  59.4420000 130.0940000  70.7580000  63.7570000 133.4500000
  69.9890000  63.2940000 133.1180000  71.4240000  63.0760000 133.5490000
  84.0580000  72.9780000 140.8650000  83.9720000  73.0780000 139.9170000
  83.2330000  72.5750000 141.1390000  54.6520000  78.3010000 132.0240000
  55.0100000  78.9390000 132.6410000  53.8150000  78.0400000 132.4080000
  48.5740000  86.1170000 129.4190000  47.9600000  86.7690000 129.7560000
  49.2660000  86.6310000 129.0020000  39.8980000  76.5190000 152.8040000
  39.4650000  75.7070000 153.0670000  39.2030000  77.1770000 152.8170000
  81.8080000  42.1040000 132.0070000  81.8680000  42.4880000 131.1330000
  82.5660000  42.4540000 132.4760000  34.4670000  62.3350000 155.1240000
  34.0200000  61.9070000 154.3940000  33.7810000  62.4730000 155.7780000
  64.6670000  53.5410000 140.9400000  65.4730000  53.4310000 141.4440000
  64.3690000  52.6480000 140.7670000  67.0170000  70.7150000 127.3450000
  66.1640000  71.0290000 127.0480000  66.8280000  69.8850000 127.7830000
  36.7390000  50.8880000 138.4810000  37.0080000  51.1060000 139.3730000
  36.0520000  50.2300000 138.5910000  80.8230000  49.7700000 160.5530000
  81.2070000  48.9570000 160.2260000  80.9050000  50.3850000 159.8240000
  31.2510000  61.3440000 129.0500000  31.0000000  62.2390000 128.8240000
  31.0000000  61.2490000 129.9690000  66.0300000  70.2860000 160.7510000
  65.1050000  70.1070000 160.5830000  66.3590000  70.6410000 159.9250000
  88.2410000  49.4830000 159.0020000  87.6990000  49.4970000 158.2140000
  89.0000000  50.0240000 158.7820000  63.6690000  47.8880000 146.6850000
  63.6000000  46.9340000 146.7170000  64.6080000  48.0580000 146.6150000
  76.0970000  52.4330000 129.8090000  75.7320000  52.1380000 130.6430000
  76.6330000  51.6980000 129.5090000  67.9680000  56.9670000 138.8180000
  67.3400000  56.3910000 138.3810000  67.8680000  57.8100000 138.3760000
  60.4410000  44.9270000 164.0000000  60.1300000  45.8320000 163.9850000
  60.9060000  44.8200000 163.1700000  56.6400000  58.0680000 132.6890000
  56.9850000  58.9310000 132.9170000  55.7500000  58.2400000 132.3810000
  89.0000000  72.5130000 154.3160000  88.9750000  73.1320000 153.5870000
  88.8770000  71.6550000 153.9080000  43.6690000  52.8540000 158.3950000
  42.7970000  52.8190000 158.0040000  43.8220000  53.7850000 158.5580000
  71.1260000  58.1900000 147.0750000  70.8730000  57.6720000 146.3110000
  72.0360000  57.9430000 147.2420000  88.5740000  50.3440000 142.5820000
  89.0000000  49.6980000 142.0180000  88.7990000  51.1890000 142.1910000
  59.6760000  33.8420000 145.2860000  59.8400000  33.4740000 144.4170000
  59.4080000  34.7450000 145.1170000  81.0850000  89.0000000 127.6530000
  80.5000000  88.3000000 127.9440000  81.1800000  88.8570000 126.7110000
  44.3980000  67.4260000 156.3850000  45.1880000  67.4570000 155.8440000
  44.6740000  67.7750000 157.2330000  53.0380000  31.0000000 144.0710000
  52.1170000  31.2480000 143.9840000  53.5090000  31.6330000 143.5280000
  82.3260000  36.7210000 144.5500000  82.6170000  36.1430000 143.8450000
  82.6640000  37.5840000 144.3090000  43.2160000  53.9100000 161.9430000
  42.4140000  53.4180000 161.7720000  43.8670000  53.5190000 161.3600000
  62.1920000  37.9560000 159.8310000  62.0340000  38.8800000 159.6410000
  63.1450000  37.8790000 159.8790000  82.8780000  34.4140000 129.0290000
  81.9750000  34.7290000 129.0480000  83.1550000  34.4220000 129.9460000
  58.8190000  64.2410000 124.0150000  59.6510000  64.0340000 123.5890000
  58.1620000  63.7720000 123.5000000  41.3350000  69.5070000 130.0340000
  41.4380000  70.3430000 130.4890000  41.1540000  69.7490000 129.1260000
  37.8920000  75.1400000 160.3460000  37.5290000  74.4960000 159.7390000
  38.7120000  74.7490000 160.6480000  87.4440000  44.8690000 127.0520000
  86.8130000  44.1500000 127.0300000  88.2820000  44.4460000 127.2400000
  52.4090000  74.8170000 134.8010000  52.9620000  75.5360000 134.4960000
  51.7290000  74.7370000 134.1310000  55.7700000  64.2310000 163.9050000
  56.7220000  64.2270000 164.0000000  55.6230000  64.3250000 162.9630000
  41.9410000  33.8640000 151.1650000  41.8940000  33.2400000 151.8890000
  41.0300000  34.1110000 151.0020000  54.2180000  39.1530000 143.4120000
  54.3850000  38.8570000 144.3070000  53.6400000  39.9100000 143.5120000
  89.0000000  71.9720000 146.7160000  88.6000000  72.2230000 147.5490000
  88.9490000  71.0160000 146.7040000  63.0500000  37.0660000 149.7630000
  63.6920000  37.7760000 149.7410000  62.3780000  37.3310000 149.1340000
  31.5340000  84.7460000 135.0840000  31.0000000  84.1900000 135.6510000
  32.2150000  84.1630000 134.7470000  47.6210000  88.6740000 123.5010000
  47.2460000  89.0000000 124.3190000  48.5400000  88.9390000 123.5350000
  64.2300000  50.9650000 151.4070000  65.1530000  50.7300000 151.3180000
  63.7560000  50.2180000 151.0420000  58.8870000  82.1340000 142.5670000
  58.3080000  82.7780000 142.1600000  59.5520000  81.9550000 141.9020000
  43.2210000  68.3870000 153.9120000  43.3980000  69.0900000 153.2870000
  42.6950000  68.8010000 154.5970000  45.8740000  80.8040000 123.5000000
  45.9490000  81.7570000 123.5450000  45.0100000  80.6130000 123.8640000
  61.9500000  87.2220000 161.8570000  61.6840000  88.0670000 161.4970000
  62.9080000  87.2420000 161.8350000  87.0110000  44.0700000 147.9980000
  87.9470000  44.1980000 147.8460000  86.7970000  43.2690000 147.5200000
  58.1740000  74.3060000 134.1320000  58.0770000  74.2330000 135.0810000
  59.0100000  73.8790000 133.9430000  50.2550000  64.1010000 123.5000000
  49.2980000  64.0870000 123.5050000  50.5090000  63.1780000 123.5380000
  83.5410000  78.8750000 145.9300000  84.4130000  78.4810000 145.9320000
  83.2500000  78.8080000 145.0210000  76.9780000  62.8050000 156.7140000
  77.3630000  63.6740000 156.6010000  77.5800000  62.3500000 157.3050000
  73.0160000  55.4830000 150.2220000  73.7350000  54.8770000 150.4020000
  73.4480000  56.2880000 149.9360000  34.8410000  64.4370000 157.6940000
  35.3530000  63.9280000 157.0660000  34.0160000  63.9580000 157.7770000
  34.8760000  38.9640000 123.5000000  34.6050000  38.0460000 123.5000000
  34.9130000  39.2030000 124.4270000  86.0090000  42.9650000 134.9300000
  85.3700000  43.6340000 134.6870000  86.3450000  43.2520000 135.7800000
  88.7290000  38.3070000 132.8800000  89.0000000  38.9930000 132.2700000
  87.9240000  37.9530000 132.5020000  88.1420000  56.7690000 158.4320000
  87.5510000  57.5220000 158.4390000  87.5610000  56.0080000 158.4170000
  46.2810000  52.8220000 149.0900000  46.5510000  51.9180000 149.2520000
  45.5310000  52.9560000 149.6710000  66.5360000  47.1640000 130.3850000
  66.2200000  46.5570000 129.7150000  65.7510000  47.6270000 130.6790000
  83.2550000  31.8480000 135.3750000  84.1870000  31.6310000 135.3480000
  82.8120000  31.0000000 135.4100000  45.6830000  77.9770000 134.1530000
  45.6100000  78.8970000 134.4050000  46.3690000  77.9640000 133.4850000
  59.8660000  83.1930000 136.4100000  60.3760000  83.9790000 136.6070000
  58.9750000  83.5130000 136.2700000  75.8060000  61.2260000 142.1810000
  76.6410000  61.3600000 142.6300000  76.0330000  60.7210000 141.3990000
  57.3420000  47.2290000 131.0730000  57.5550000  46.7660000 131.8830000
  56.5570000  47.7340000 131.2840000  85.8500000  56.6350000 156.3810000
  85.8250000  55.6870000 156.2530000  85.4820000  56.7690000 157.2550000
  52.1970000  58.9310000 146.4540000  52.1220000  59.5820000 145.7570000
  52.3130000  59.4460000 147.2530000  87.6450000  42.3230000 128.5190000
  88.5870000  42.1930000 128.4060000  87.2530000  41.5000000 128.2270000
  88.9430000  88.9510000 149.1720000  89.0000000  88.0140000 149.3570000
  88.7550000  89.0000000 148.2350000  62.0390000  46.1390000 134.6660000
  62.6070000  45.3830000 134.5200000  62.3720000  46.8090000 134.0690000
  34.9310000  52.7850000 142.7880000  34.0300000  53.0580000 142.9600000
  35.3820000  52.9080000 143.6230000  58.7000000  45.3470000 159.5200000
  57.7840000  45.1610000 159.7300000  58.6990000  46.2600000 159.2320000
  72.8460000  71.8480000 157.3930000  72.0630000  72.3830000 157.5260000
  73.1930000  71.7080000 158.2750000  54.5280000  42.1870000 144.1570000
  54.0570000  42.3690000 143.3440000  53.8390000  42.0400000 144.8060000
  84.0290000  88.7280000 155.0280000  83.8290000  88.0280000 155.6490000
  84.9200000  89.0000000 155.2510000  63.8900000  64.6020000 140.4650000
  64.4370000  64.8670000 141.2040000  63.0470000  65.0270000 140.6250000
  58.9160000  51.6460000 140.4230000  59.6150000  52.3000000 140.4230000
  58.1070000  52.1600000 140.4200000  56.2600000  70.6370000 134.6130000
  57.0280000  70.2420000 135.0260000  56.6210000  71.2290000 133.9520000
  59.3890000  57.3500000 135.1000000  60.1930000  57.8310000 134.9050000
  59.6890000  56.4910000 135.3960000  51.0030000  44.9170000 143.6920000
  51.8060000  45.4320000 143.6130000  50.3780000  45.5090000 144.1100000
  60.7270000  53.1480000 149.5110000  60.0290000  53.3800000 150.1230000
  60.4990000  53.6040000 148.7010000  65.8310000  88.8670000 140.4390000
  65.2230000  89.0000000 141.1660000  65.3000000  89.0000000 139.6540000
  40.7440000  40.0320000 124.6600000  41.2360000  40.5660000 125.2840000
  41.4040000  39.7170000 124.0420000  69.7570000  68.5810000 123.8290000
  69.0570000  68.0170000 123.5000000  69.4780000  68.8180000 124.7140000
  49.0060000  54.6270000 147.9850000  48.2630000  55.1230000 148.3260000
  48.6110000  53.8630000 147.5630000  66.9170000  66.2210000 123.5370000
  67.8010000  65.8560000 123.5000000  66.3430000  65.4570000 123.5880000
  70.8710000  75.9530000 132.0640000  70.1010000  75.9720000 131.4970000
  71.5100000  75.4240000 131.5850000  45.8870000  53.1410000 140.4700000
  45.2250000  53.0390000 141.1540000  45.3860000  53.3420000 139.6790000
  73.8300000  82.8370000 155.7040000  74.1170000  81.9430000 155.8870000
  72.8830000  82.7650000 155.5820000  52.7370000  76.0780000 138.8300000
  53.0300000  76.1830000 139.7350000  53.1850000  76.7750000 138.3500000
  45.5810000  33.3070000 163.8660000  44.9890000  34.0590000 163.8730000
  46.4500000  33.6850000 164.0000000  41.0440000  84.2910000 134.1000000
  40.4520000  84.7670000 133.5170000  40.6230000  83.4410000 134.2280000
  74.5040000  50.9250000 144.9870000  74.7540000  50.5750000 145.8420000
  75.2580000  51.4460000 144.7110000  38.8200000  68.9480000 146.4660000
  39.2060000  68.6960000 145.6270000  38.6120000  68.1180000 146.8940000
  37.4710000  78.7280000 163.8760000  38.3850000  78.9580000 163.7120000
  37.0300000  79.5690000 164.0000000  71.0430000  57.6540000 137.5330000
  70.9060000  58.5690000 137.7790000  70.1690000  57.2630000 137.5680000
  32.1190000  81.0760000 123.5340000  31.2170000  81.3930000 123.5000000
  32.6550000  81.8690000 123.5050000  79.1130000  88.4150000 138.8520000
  79.4470000  87.6290000 138.4210000  78.8720000  89.0000000 138.1330000
  54.7910000  79.6180000 146.9170000  55.1770000  79.0830000 146.2230000
  54.2940000  78.9980000 147.4500000  49.3580000  88.9980000 157.2310000
  48.4250000  89.0000000 157.4460000  49.3880000  88.8020000 156.2940000
  33.1570000  48.1310000 127.5910000  32.9580000  47.2970000 127.1660000
  33.3320000  47.9000000 128.5040000  51.1010000  61.1770000 133.6960000
  51.4700000  61.2610000 134.5760000  50.2280000  61.5630000 133.7640000
  49.4800000  82.8200000 156.5610000  49.7750000  82.6130000 155.6740000
  50.1070000  82.3760000 157.1320000  31.2140000  32.2060000 143.7950000
  32.1350000  32.4020000 143.6250000  31.2170000  31.3100000 144.1320000
  88.9840000  44.8180000 135.0310000  88.9870000  45.1620000 134.1390000
  88.9980000  45.5960000 135.5890000  88.9990000  78.8600000 157.6800000
  88.2730000  79.3570000 158.0570000  88.5780000  78.1430000 157.2060000
  86.0860000  74.1830000 147.9470000  85.3670000  74.3220000 148.5640000
  86.6690000  73.5680000 148.3930000  59.6380000  55.1820000 159.8490000
  59.1650000  54.8790000 159.0740000  58.9830000  55.1780000 160.5470000
  85.3530000  56.5110000 123.5030000  86.1800000  56.9940000 123.5000000
  84.6790000  57.1910000 123.5160000  40.6880000  48.3850000 124.0160000
  40.7280000  47.5800000 123.5000000  40.1270000  48.9690000 123.5060000
  80.3480000  79.6240000 141.2690000  81.0910000  79.2550000 140.7920000
  80.1200000  80.4160000 140.7810000  63.4160000  82.8480000 129.9320000
  62.7180000  83.4340000 129.6400000  63.9580000  82.7130000 129.1540000
  77.7250000  88.3110000 123.5120000  78.3890000  89.0000000 123.5000000
  78.2260000  87.4960000 123.5340000  45.5320000  61.9780000 150.1150000
  45.4130000  62.5950000 149.3930000  45.6170000  61.1240000 149.6910000
  84.2640000  74.1090000 155.5670000  84.1610000  73.4880000 154.8460000
  83.5720000  74.7570000 155.4270000  40.5320000  77.8380000 147.0210000
  41.0490000  77.0680000 147.2560000  39.7470000  77.7760000 147.5670000
  50.6380000  57.1650000 158.8330000  50.2680000  56.2860000 158.9150000
  50.3260000  57.6290000 159.6100000  34.3610000  59.1240000 163.9950000
  33.4550000  58.8160000 163.9880000  34.2900000  60.0790000 164.0000000
  38.2390000  58.2030000 141.0820000  37.7130000  57.8440000 140.3680000
  37.5990000  58.5770000 141.6880000  80.7850000  72.1110000 140.9320000
  80.6780000  73.0120000 141.2360000  80.6280000  71.5750000 141.7100000
  39.2800000  60.5830000 160.2570000  38.6600000  61.0810000 159.7250000
  39.8140000  61.2490000 160.6910000  46.4520000  88.4380000 131.2340000
  46.7770000  89.0000000 131.9370000  45.8050000  88.9770000 130.7760000
  48.7650000  88.4020000 146.5220000  48.0070000  88.9750000 146.6380000
  49.4970000  89.0000000 146.3690000  62.0290000  47.8420000 149.9370000
  61.8450000  48.5130000 150.5940000  61.1680000  47.5880000 149.6050000
  56.7090000  88.6090000 136.4520000  55.9010000  89.0000000 136.1220000
  57.4010000  89.0000000 135.9190000  49.0450000  31.8710000 148.8510000
  49.2250000  32.4290000 148.0950000  48.9050000  31.0000000 148.4780000
  82.0090000  62.1010000 145.3420000  81.5490000  62.1260000 146.1810000
  82.9340000  62.1980000 145.5720000  83.0500000  67.4840000 145.2340000
  83.0910000  66.6910000 144.7010000  83.1450000  68.2010000 144.6070000
  81.3700000  59.1790000 153.9450000  81.8950000  58.6050000 154.5020000
  80.7560000  58.5900000 153.5050000  77.4460000  53.0270000 164.0000000
  78.3880000  52.9900000 163.8330000  77.2390000  53.9620000 164.0000000
  31.0000000  87.1430000 129.9550000  31.8590000  87.0000000 129.5570000
  31.1320000  87.8780000 130.5540000  75.8170000  37.8360000 125.6830000
  75.1040000  37.2110000 125.5520000  75.4580000  38.6740000 125.3910000
  63.8960000  88.5900000 150.7690000  64.7130000  89.0000000 150.4880000
  64.1710000  87.8730000 151.3410000  48.6740000  55.1280000 142.6760000
  48.3390000  55.8890000 143.1500000  49.4650000  54.8780000 143.1530000
  79.1620000  40.0560000 135.7990000  79.1990000  40.8160000 135.2180000
  79.9540000  40.1230000 136.3330000  71.1120000  73.9900000 134.7230000
  71.4740000  74.5690000 135.3930000  71.8790000  73.6110000 134.2930000
  62.0930000  68.3520000 159.9250000  62.9050000  68.2220000 160.4150000
  61.5450000  67.6040000 160.1660000  66.5080000  85.4360000 130.8770000
  67.2620000  85.8890000 130.4990000  66.6280000  85.5190000 131.8230000
  88.4780000  88.4020000 159.4960000  89.0000000  87.6020000 159.4520000
  89.0000000  89.0000000 160.0320000  57.2550000  66.8400000 136.6290000
  57.6080000  67.5890000 137.1090000  57.8510000  66.7280000 135.8880000
  42.0000000  39.5820000 140.9740000  42.3510000  39.3030000 140.1290000
  42.7390000  39.5050000 141.5790000  71.0950000  31.2620000 127.4290000
  71.9160000  31.0000000 127.8460000  70.4150000  31.0020000 128.0510000
  53.8160000  45.9900000 140.4200000  54.6830000  46.2040000 140.0750000
  53.2880000  46.7680000 140.2390000  77.1320000  52.7130000 137.1080000
  77.4120000  53.5140000 137.5520000  77.7810000  52.5840000 136.4160000
  45.0690000  64.4610000 127.6750000  44.5360000  63.8320000 128.1610000
  44.4630000  65.1690000 127.4540000  40.8130000  44.8280000 123.5000000
  40.5850000  44.4480000 124.3480000  41.7460000  45.0340000 123.5720000
  69.2760000  78.0600000 156.4360000  69.2320000  77.9450000 157.3850000
  69.7260000  78.8970000 156.3160000  33.6120000  35.0380000 161.1450000
  32.8990000  35.5360000 160.7460000  33.7030000  34.2630000 160.5900000
  73.0280000  79.9080000 152.9060000  73.4440000  80.1500000 152.0790000
  72.8300000  78.9750000 152.8110000  53.5440000  74.2410000 149.5060000
  53.9930000  73.3990000 149.5860000  52.6140000  74.0150000 149.4730000
  71.8590000  46.2930000 155.2720000  71.3290000  45.7980000 155.8970000
  71.4370000  47.1510000 155.2270000  62.3650000  69.3500000 149.2410000
  62.8450000  68.8980000 149.9340000  62.8040000  70.1970000 149.1570000
  83.7450000  53.5390000 150.2200000  83.5670000  52.7460000 150.7240000
  84.6840000  53.6880000 150.3290000  72.8500000  33.9680000 123.9580000
  72.4860000  33.2110000 123.5000000  73.3530000  33.5920000 124.6810000
  72.2700000  66.8370000 160.4400000  71.8730000  67.2870000 159.6940000
  73.0870000  66.4760000 160.0950000  34.1770000  75.5560000 135.9800000
  35.0410000  75.1610000 136.0920000  33.7390000  75.4190000 136.8200000
  53.0050000  81.5470000 136.5490000  52.6780000  80.6530000 136.6480000
  53.9200000  81.5000000 136.8300000  77.6030000  57.0960000 128.2430000
  77.9200000  56.8300000 127.3800000  76.6670000  57.2550000 128.1150000
  85.9780000  40.4300000 134.3850000  86.2550000  39.5150000 134.4000000
  85.0220000  40.3910000 134.3570000  33.2080000  55.3320000 148.8990000
  33.7810000  54.8980000 149.5290000  33.7780000  55.9520000 148.4430000
  85.4710000  83.1140000 123.5000000  85.3590000  82.1640000 123.5120000
  86.4180000  83.2450000 123.5430000  36.4190000  69.5530000 152.1440000
  36.8840000  70.3510000 152.3980000  36.0520000  69.2180000 152.9620000
  34.2230000  66.9070000 134.1060000  33.3510000  66.8910000 133.7120000
  34.7880000  66.4890000 133.4550000  79.1070000  58.5510000 148.2360000
  79.8840000  58.1730000 147.8250000  79.4170000  58.8820000 149.0790000
  63.7710000  68.0930000 141.6670000  64.3210000  67.3290000 141.8380000
  62.8860000  67.7380000 141.5800000  81.4330000  61.7160000 164.0000000
  80.8160000  62.4340000 163.8610000  82.2700000  62.0530000 163.6780000
  77.0310000  31.8410000 163.9710000  76.1030000  31.6090000 164.0000000
  77.4890000  31.0000000 163.9810000  31.1610000  88.9900000 163.7390000
  31.0000000  88.0840000 164.0000000  31.0000000  89.0000000 162.7950000
  37.6850000  35.3490000 132.4750000  38.5830000  35.2540000 132.7920000
  37.4680000  36.2670000 132.6400000  33.4970000  78.0800000 146.7170000
  34.0620000  78.3100000 147.4550000  33.6960000  77.1600000 146.5410000
  58.9380000  31.3270000 145.7050000  59.7170000  31.0000000 145.2550000
  59.0240000  31.0000000 146.6010000  68.0180000  44.4610000 158.7650000
  67.1170000  44.4060000 158.4450000  67.9350000  44.8010000 159.6570000
  47.1710000  86.4210000 163.6900000  47.3010000  86.5870000 162.7570000
  48.0220000  86.1100000 164.0000000  40.3610000  88.5090000 148.0600000
  39.5680000  89.0000000 148.2720000  41.0670000  89.0000000 148.4810000
  76.4300000  42.8390000 142.0510000  76.3030000  43.4800000 141.3520000
  77.2350000  43.1180000 142.4880000  84.7680000  54.5590000 159.2660000
  85.6670000  54.4230000 158.9660000  84.3010000  54.8710000 158.4910000
  82.1840000  34.0850000 145.9790000  81.8270000  34.0680000 145.0920000
  81.5080000  34.5180000 146.5020000  45.3230000  50.9300000 136.8600000
  45.2540000  51.4310000 137.6720000  45.1990000  51.5790000 136.1670000
  73.1010000  43.1350000 141.4850000  73.8160000  43.7040000 141.2000000
  73.5360000  42.3420000 141.7980000  84.0320000  49.5910000 155.7390000
  84.8800000  49.7100000 156.1660000  83.9270000  50.3690000 155.1910000
  71.4580000  55.4420000 136.1850000  70.5550000  55.1310000 136.1200000
  71.9870000  54.6430000 136.1900000  59.8340000  41.2330000 135.7370000
  59.6610000  40.8700000 134.8680000  60.7890000  41.2530000 135.8030000
  71.2100000  31.0010000 152.6320000  70.2990000  31.1780000 152.8630000
  71.6750000  31.0000000 153.4690000  52.2930000  31.0000000 133.5040000
  52.1990000  31.0730000 134.4530000  51.4370000  31.2550000 133.1570000
  73.9870000  84.1400000 134.6080000  74.7400000  83.6590000 134.9520000
  73.5420000  83.5130000 134.0380000  54.3420000  76.2890000 145.0010000
  53.5580000  75.8120000 145.2750000  54.0300000  77.1750000 144.8160000
  44.8940000  31.0000000 125.2840000  44.1300000  31.0710000 124.7120000
  44.5980000  31.3490000 126.1250000  60.3540000  31.2750000 155.5130000
  61.1700000  31.0000000 155.9290000  59.6690000  31.0000000 156.1220000
  67.6770000  54.8790000 126.1130000  67.2890000  55.7530000 126.0750000
  68.6170000  55.0290000 126.0030000  34.4930000  88.7710000 137.1520000
  35.1260000  88.5030000 136.4860000  34.0420000  87.9620000 137.3940000
  55.8470000  41.8830000 154.8540000  54.9920000  41.5080000 154.6490000
  56.4300000  41.1270000 154.9290000  52.1150000  55.5440000 136.7610000
  51.3300000  55.0040000 136.8480000  52.8340000  54.9150000 136.6930000
  34.5030000  32.2230000 125.8510000  34.6860000  33.1620000 125.8120000
  33.5510000  32.1670000 125.9350000  33.3560000  89.0000000 134.7910000
  32.7920000  88.3430000 135.1970000  33.9320000  88.4980000 134.2130000
  78.8280000  71.7180000 159.8270000  77.9210000  72.0210000 159.8630000
  79.1990000  72.1620000 159.0650000  89.0000000  43.9810000 130.9820000
  88.2050000  43.6700000 130.5500000  88.6860000  44.4460000 131.7580000
  80.5070000  42.9840000 152.3390000  81.2890000  43.2110000 151.8370000
  80.8450000  42.6020000 153.1500000  63.5040000  49.0890000 153.2980000
  62.7490000  48.6320000 152.9270000  64.0610000  48.3910000 153.6430000
  39.2300000  35.1950000 136.2770000  38.6870000  35.5390000 136.9860000
  39.7860000  35.9310000 136.0220000  36.0080000  84.9490000 163.9120000
  35.1410000  84.5540000 164.0000000  35.8890000  85.6470000 163.2660000
  86.6290000  68.0440000 123.9830000  87.0910000  68.7340000 123.5060000
  85.8110000  67.9250000 123.5000000  36.4730000  40.2390000 147.6650000
  36.8010000  40.2560000 146.7660000  37.2530000  40.0950000 148.2010000
  68.6600000  81.0740000 147.5880000  68.2560000  80.2120000 147.6850000
  67.9730000  81.6910000 147.8430000  67.6020000  48.1620000 154.8880000
  66.7570000  48.2200000 154.4430000  67.5010000  48.7080000 155.6680000
  52.4380000  69.3330000 128.3530000  51.5060000  69.1180000 128.3810000
  52.4650000  70.2890000 128.4040000  58.6660000  78.2400000 136.0020000
  57.8080000  78.6410000 135.8620000  58.9250000  77.9210000 135.1370000
  79.1840000  49.0570000 149.6740000  79.5990000  48.5810000 150.3930000
  79.4660000  48.5940000 148.8850000  47.7250000  68.4210000 143.8050000
  47.0330000  67.8170000 144.0730000  47.4610000  69.2660000 144.1690000
  77.3990000  85.5450000 163.7750000  77.6910000  86.4560000 163.7580000
  76.4430000  85.6000000 163.7940000  37.2180000  59.8980000 130.6390000
  37.5350000  58.9960000 130.5930000  36.2640000  59.8170000 130.6530000
  60.3090000  46.5930000 142.0670000  59.9040000  46.6560000 142.9320000
  59.5810000  46.4080000 141.4740000  76.5410000  72.5850000 141.7750000
  76.5360000  73.0890000 140.9610000  77.0050000  71.7770000 141.5540000
  36.9120000  78.8050000 131.0490000  36.1100000  79.3260000 131.0790000
  37.6180000  79.4480000 131.1140000  86.5260000  81.3310000 149.7270000
  87.1680000  81.0850000 149.0620000  86.0610000  82.0770000 149.3470000
  67.6670000  88.2840000 147.7680000  67.6160000  87.4860000 147.2420000
  66.7640000  88.6010000 147.8110000  48.1320000  79.4730000 150.9650000
  47.2100000  79.4680000 151.2180000  48.3360000  80.3970000 150.8170000
  79.0150000  59.9910000 123.6220000  79.8370000  60.4650000 123.5000000
  78.8880000  59.9700000 124.5710000  36.3890000  80.5590000 160.2460000
  35.4740000  80.8410000 160.2570000  36.3490000  79.6090000 160.3580000
  88.5520000  69.1920000 152.2330000  89.0000000  69.1410000 151.3890000
  87.8580000  68.5350000 152.1770000  65.8290000  39.9220000 136.6510000
  65.9370000  39.0700000 137.0720000  65.9320000  40.5560000 137.3610000
  43.1530000  44.6490000 145.5650000  42.9610000  43.7310000 145.3750000
  43.6490000  44.6270000 146.3830000  49.8350000  89.0000000 138.6340000
  50.7860000  88.9340000 138.5550000  49.6170000  88.4500000 139.3870000
  64.3980000  61.8830000 157.0120000  63.5100000  61.8350000 156.6590000
  64.6400000  62.8060000 156.9300000  82.6950000  40.1860000 163.9540000
  81.8180000  39.8030000 163.9330000  82.5430000  41.1300000 164.0000000
  67.1230000  60.6950000 128.0350000  67.0900000  59.9890000 128.6800000
  66.2390000  61.0630000 128.0370000  62.2390000  85.9260000 137.7020000
  61.8030000  86.7640000 137.8560000  63.1490000  86.0790000 137.9570000
  45.2010000  78.7670000 155.7090000  45.5480000  78.1400000 155.0740000
  45.7720000  79.5320000 155.6260000  35.5930000  45.8970000 126.7830000
  35.6800000  45.7910000 125.8360000  35.4730000  46.8390000 126.9090000
  52.3830000  88.4670000 156.8150000  52.8960000  87.6710000 156.6750000
  52.9220000  89.0000000 157.4000000  51.0410000  68.9190000 147.4490000
  50.5340000  69.6050000 147.8840000  51.2670000  69.2920000 146.5970000
  69.3780000  78.1770000 151.0380000  69.4710000  77.8910000 150.1300000
  69.2190000  77.3710000 151.5290000  49.2800000  32.4810000 123.5000000
  50.0670000  33.0260000 123.5000000  49.6100000  31.5820000 123.5000000
  48.0330000  67.4630000 131.0250000  47.2510000  67.2440000 131.5320000
  48.3720000  66.6180000 130.7290000  37.6780000  72.4280000 139.0080000
  38.3740000  72.0540000 139.5480000  38.1230000  73.0710000 138.4550000
  45.7530000  34.3850000 155.6380000  46.3650000  34.2550000 154.9130000
  46.2290000  34.9410000 156.2560000  44.8480000  65.4710000 136.7880000
  45.3460000  65.4200000 135.9730000  44.3170000  64.6740000 136.7960000
  32.5450000  65.5780000 125.2670000  31.8500000  66.0330000 125.7430000
  32.0920000  64.8890000 124.7810000  31.0070000  69.5000000 142.1700000
  31.0280000  69.2110000 143.0820000  31.0010000  68.6890000 141.6620000
  76.9390000  70.7590000 138.7270000  77.0410000  70.0230000 138.1240000
  76.0320000  71.0410000 138.6100000  65.0610000  49.4370000 144.3010000
  64.5610000  48.6300000 144.1800000  64.5720000  50.0980000 143.8110000
  73.0770000  68.5310000 157.8410000  73.7630000  67.9480000 158.1640000
  73.5410000  69.3260000 157.5770000  73.7080000  68.1970000 146.2870000
  73.1400000  68.9380000 146.4960000  74.3000000  68.1290000 147.0370000
  39.5930000  39.9680000 139.0190000  38.6750000  39.7090000 138.9440000
  39.8980000  40.0370000 138.1140000  65.3800000  31.5880000 134.6260000
  64.9260000  31.0300000 133.9940000  66.1840000  31.1110000 134.8340000
  63.3240000  38.6130000 146.9560000  64.2300000  38.5840000 147.2610000
  63.2680000  39.4210000 146.4460000  89.0000000  57.1300000 156.1120000
  88.8930000  57.2170000 155.1650000  88.9740000  58.0290000 156.4390000
  43.0730000  72.7870000 133.0510000  43.6510000  72.0770000 133.3310000
  42.6970000  72.4790000 132.2260000  62.8330000  54.3150000 160.2780000
  62.1410000  54.1260000 160.9120000  62.6660000  53.7110000 159.5540000
  57.5240000  55.6010000 123.7970000  57.3840000  54.7380000 124.1860000
  56.6550000  55.8740000 123.5000000  61.7660000  60.5120000 130.5980000
  62.4090000  60.8970000 131.1930000  62.2200000  60.4570000 129.7570000
  88.9650000  49.8020000 130.2790000  89.0000000  48.8690000 130.4890000
  88.8760000  50.2360000 131.1280000  60.8040000  39.8380000 126.1060000
  60.5330000  40.7530000 126.0420000  61.7610000  39.8700000 126.1100000
  89.0000000  32.8360000 151.7950000  89.0000000  33.4190000 151.0360000
  88.1810000  33.0340000 152.2500000  63.9040000  65.8790000 150.9880000
  64.6550000  66.4680000 151.0590000  64.2840000  65.0010000 151.0160000
  43.4630000  52.2380000 147.4400000  44.1870000  51.6170000 147.5180000
  43.8890000  53.0900000 147.3410000  49.8190000  80.1440000 153.4600000
  50.1240000  81.0160000 153.2120000  50.1260000  79.5730000 152.7560000
  88.0340000  65.2570000 161.4080000  88.3140000  66.1430000 161.1810000
  88.8070000  64.8560000 161.8070000  46.3290000  78.2590000 143.6960000
  45.6880000  77.8790000 143.0950000  46.7330000  78.9690000 143.1970000
  88.0740000  76.7600000 163.8030000  87.9490000  76.3640000 162.9410000
  89.0000000  76.6170000 164.0000000  43.7390000  45.4760000 128.8510000
  44.4060000  45.1640000 128.2400000  43.1750000  44.7170000 128.9980000
  73.0120000  31.6880000 163.9860000  73.6750000  31.0000000 163.9400000
  73.5130000  32.5040000 164.0000000  50.3870000  49.1990000 153.3680000
  49.8900000  48.4540000 153.0310000  50.8100000  48.8670000 154.1610000
  61.6820000  48.3170000 156.0810000  62.5030000  48.7970000 156.1820000
  61.3100000  48.6460000 155.2630000  58.2430000  33.7920000 158.2460000
  57.4570000  33.6910000 157.7090000  58.9100000  34.1110000 157.6370000
  31.4780000  76.8610000 125.0680000  32.3530000  76.4740000 125.0480000
  31.6280000  77.7990000 124.9420000  69.2710000  33.3830000 153.4420000
  69.9080000  33.2850000 154.1500000  68.4630000  33.6470000 153.8820000
  53.2470000  69.8360000 136.0980000  54.0990000  70.2220000 135.8950000
  53.4480000  68.9460000 136.3860000  65.5880000  33.3570000 131.7480000
  65.8820000  33.2900000 130.8400000  66.2970000  33.8180000 132.1970000
  46.9930000  45.3710000 126.7070000  46.8810000  45.7670000 127.5710000
  46.6820000  44.4710000 126.8130000  58.0040000  48.5720000 136.5940000
  57.0580000  48.6700000 136.7010000  58.3120000  48.2740000 137.4500000
  67.1010000  48.0480000 142.2940000  67.2970000  47.9300000 141.3650000
  66.1450000  48.0240000 142.3430000  46.1770000  79.2470000 161.3100000
  46.7030000  79.9830000 161.6230000  46.2810000  78.5740000 161.9840000
  58.7000000  67.8990000 157.0450000  59.5360000  67.6220000 157.4190000
  58.0710000  67.7950000 157.7590000  50.0140000  82.0520000 127.0810000
  49.6940000  82.8070000 127.5750000  49.5640000  81.3020000 127.4700000
  53.4870000  46.1010000 149.7130000  53.8130000  46.9270000 150.0710000
  52.5480000  46.2450000 149.5940000  59.8620000  83.2390000 139.7750000
  58.9180000  83.3910000 139.7610000  60.2090000  83.8180000 139.0960000
  39.7180000  85.4470000 155.0390000  39.3660000  86.3030000 155.2820000
  39.0660000  85.0800000 154.4420000  88.7130000  66.0780000 131.2660000
  88.8550000  65.5390000 132.0430000  87.7850000  65.9600000 131.0590000
  59.3360000  83.4240000 127.0870000  58.6490000  83.8140000 127.6280000
  60.1500000  83.7970000 127.4260000  44.8850000  86.1580000 131.3990000
  44.3860000  86.7640000 130.8520000  44.2490000  85.8270000 132.0340000
  58.7880000  31.0620000 159.2280000  58.4850000  31.2020000 158.3310000
  59.7410000  31.0000000 159.1530000  44.7750000  54.8920000 132.8150000
  44.5420000  55.0740000 131.9050000  45.6870000  54.6020000 132.7750000
  77.2940000  49.3160000 138.4240000  77.9730000  49.4840000 139.0770000
  77.2460000  50.1260000 137.9150000  88.9940000  59.9310000 147.4020000
  89.0000000  60.3970000 146.5670000  88.5990000  59.0820000 147.2010000
  60.6090000  59.0540000 143.3080000  60.3650000  58.8640000 144.2140000
  60.4240000  59.9870000 143.2000000  86.4860000  86.5060000 128.7470000
  86.5030000  85.5500000 128.7120000  86.5270000  86.7130000 129.6810000
  52.2660000  42.5430000 149.5230000  52.1570000  43.2350000 150.1740000
  52.2350000  41.7300000 150.0290000  76.2170000  88.6720000 142.0440000
  77.1420000  88.4950000 142.2140000  75.8790000  89.0000000 142.8770000
  72.2540000  34.5000000 155.5360000  72.2700000  33.6330000 155.1310000
  71.3240000  34.6880000 155.6660000  53.5020000  33.7050000 136.3890000
  53.1690000  32.8800000 136.7420000  54.4450000  33.5660000 136.3020000
  43.7950000  50.0880000 149.7060000  44.7480000  50.1670000 149.6750000
  43.6320000  49.1440000 149.7190000  77.1520000  67.2290000 125.2970000
  76.5040000  66.6610000 124.8800000  76.9050000  67.2360000 126.2220000
  85.6740000  76.7740000 148.0400000  84.9160000  76.5410000 147.5040000
  85.8510000  77.6890000 147.8200000  37.7500000  31.0720000 149.5080000
  38.5130000  31.0000000 148.9350000  37.7060000  32.0020000 149.7330000
  58.4440000  49.4410000 160.5030000  59.0790000  49.5350000 159.7940000
  58.1130000  48.5470000 160.4130000  88.3820000  83.0480000 142.5170000
  88.9340000  82.2760000 142.6380000  89.0000000  83.7760000 142.4410000
  60.0080000  74.8340000 163.6550000  60.3590000  74.0950000 163.1570000
  60.7830000  75.2790000 164.0000000  70.0570000  48.2980000 136.9020000
  70.4920000  48.7860000 136.2040000  69.1330000  48.5350000 136.8210000
  71.6690000  33.6410000 144.3140000  72.3220000  33.0240000 144.6440000
  70.9950000  33.0880000 143.9180000  58.1870000  33.7280000 151.3340000
  57.2890000  33.5200000 151.5930000  58.2730000  33.3640000 150.4530000
  77.1210000  59.1080000 130.2240000  76.7650000  59.8690000 130.6820000
  77.9740000  59.3990000 129.9010000  31.8710000  68.4260000 145.3390000
  32.0470000  69.3670000 145.3690000  31.0000000  68.3320000 145.7250000
  59.6350000  39.1410000 128.2850000  59.1920000  39.1690000 129.1330000
  58.9250000  39.1120000 127.6440000  44.7410000  72.0660000 139.1670000
  45.6790000  72.2240000 139.2750000  44.4290000  72.8150000 138.6570000
  69.2020000  70.7490000 152.5160000  68.9920000  70.1190000 153.2050000
  68.8050000  70.3820000 151.7260000  67.7330000  49.6550000 126.7090000
  68.4080000  50.0270000 126.1420000  66.9270000  49.7190000 126.1960000
  45.1130000  80.0720000 140.7680000  44.6950000  79.9880000 139.9110000
  45.9450000  79.6080000 140.6750000  52.1210000  48.7140000 149.6280000
  52.4840000  48.5980000 148.7500000  51.2260000  49.0190000 149.4800000
  56.6570000  77.4810000 130.7760000  57.2060000  77.4200000 129.9940000
  57.1910000  77.0980000 131.4730000  64.3380000  31.1610000 137.6420000
  63.5940000  31.1580000 137.0410000  65.0990000  31.0000000 137.0830000
  33.7680000  37.4160000 150.3230000  34.1560000  38.2910000 150.2970000
  32.8300000  37.5670000 150.2080000  79.1570000  89.0000000 144.6510000
  79.5860000  88.1610000 144.8150000  78.3930000  88.9970000 145.2290000
  70.8600000  85.3880000 154.5150000  71.1980000  85.9340000 155.2250000
  71.3790000  84.5850000 154.5620000  63.7330000  82.5520000 163.9930000
  64.2450000  81.7430000 164.0000000  64.3890000  83.2500000 163.9890000
  49.9940000  58.5680000 153.2800000  49.4940000  58.8700000 152.5220000
  50.1240000  59.3540000 153.8100000  55.8920000  83.1060000 149.6810000
  56.5920000  83.1160000 150.3340000  56.1780000  83.7280000 149.0120000
  39.9740000  54.6260000 130.2110000  39.3610000  54.9880000 130.8500000
  40.5590000  55.3530000 129.9990000  58.7420000  55.0490000 129.9760000
  58.8630000  54.2810000 129.4170000  59.1970000  54.8290000 130.7880000
  75.4330000  78.5740000 150.1850000  75.7290000  78.5950000 151.0950000
  74.7300000  79.2220000 150.1460000  34.3620000  82.0070000 127.3770000
  33.5950000  82.1350000 126.8190000  34.0870000  81.3470000 128.0150000
  79.1220000  85.5800000 143.0070000  80.0630000  85.7490000 143.0430000
  78.7200000  86.4480000 143.0450000  41.6420000  34.3280000 164.0000000
  42.5540000  34.6160000 163.9670000  41.6880000  33.3750000 163.9190000
  38.8060000  48.1290000 161.7920000  38.0260000  47.6280000 161.5530000
  39.5370000  47.5400000 161.6040000  41.0250000  52.9590000 147.4650000
  40.1410000  53.0320000 147.1050000  41.3940000  53.8380000 147.3740000
  79.1650000  72.7140000 139.0600000  79.2170000  71.7640000 138.9590000
  78.2270000  72.8980000 139.1230000  69.1610000  85.9030000 158.6260000
  69.0600000  85.0920000 159.1230000  69.9680000  86.2930000 158.9640000
  36.5340000  39.4260000 163.7660000  36.8190000  38.7340000 163.1690000
  36.2650000  40.1430000 163.1920000  67.5630000  32.7800000 149.4970000
  68.0380000  33.2440000 150.1860000  68.1770000  32.7450000 148.7630000
  87.0590000  82.7870000 136.8580000  87.4300000  83.6650000 136.7770000
  86.1230000  82.9330000 137.0020000  88.1870000  84.1110000 131.6940000
  87.4890000  84.3670000 132.2970000  88.7920000  84.8540000 131.6990000
  38.6090000  38.8030000 126.9850000  38.9830000  39.6520000 126.7480000
  38.5210000  38.3390000 126.1520000  74.8730000  65.9470000 162.4010000
  74.8870000  66.0820000 163.3480000  75.7650000  65.6740000 162.1840000
  73.2470000  64.8320000 153.6530000  74.1820000  64.6830000 153.7890000
  73.0760000  65.6800000 154.0630000  88.0490000  87.1600000 132.3130000
  87.8620000  86.7960000 133.1780000  89.0000000  87.2710000 132.3000000
  64.2090000  75.1950000 131.4090000  63.6890000  74.9460000 132.1730000
  64.2750000  74.3920000 130.8920000  34.2100000  69.9100000 162.3660000
  35.0940000  70.1970000 162.5930000  33.9740000  69.2890000 163.0550000
  38.8450000  64.3190000 135.8990000  38.1660000  63.6790000 135.6890000
  38.4840000  64.8210000 136.6300000  41.9730000  65.2670000 148.3280000
  42.0560000  64.3140000 148.2840000  42.2720000  65.4930000 149.2100000
  85.0600000  81.3660000 139.2410000  84.6930000  80.7510000 138.6060000
  84.3440000  81.5320000 139.8560000  31.5660000  49.2550000 123.7810000
  31.0000000  49.9740000 123.5000000  31.0000000  48.4820000 123.7610000
  53.5860000  37.9770000 140.5540000  53.6040000  37.2680000 139.9110000
  52.7790000  37.8320000 141.0480000  84.4500000  78.9620000 140.3350000
  84.5180000  78.6580000 141.2400000  83.5100000  79.0700000 140.1880000
  72.3660000  41.8170000 144.2770000  72.2090000  42.6780000 143.8900000
  73.0020000  41.9800000 144.9740000  42.8020000  51.4930000 137.1870000
  42.4040000  52.3630000 137.1910000  42.0630000  50.8910000 137.0980000
  82.4020000  69.4520000 123.5200000  83.1700000  68.8810000 123.5060000
  82.6960000  70.2390000 123.9790000  52.0480000  59.4310000 129.3020000
  52.4610000  60.2940000 129.2820000  52.7810000  58.8150000 129.3220000
  71.9110000  82.3130000 142.7050000  71.3950000  81.7570000 142.1220000
  72.2300000  83.0200000 142.1430000  51.0290000  77.6370000 158.2810000
  51.0790000  77.1890000 157.4370000  51.8530000  78.1220000 158.3440000
  82.7640000  87.0920000 144.1100000  82.6940000  86.6870000 143.2460000
  81.8620000  87.1360000 144.4280000  38.1020000  45.5970000 140.1880000
  37.1700000  45.6500000 140.3980000  38.4930000  46.3450000 140.6390000
  50.4680000  65.0150000 148.9980000  51.0060000  65.8040000 148.9260000
  50.6210000  64.7010000 149.8890000  38.6030000  72.3000000 143.9930000
  38.8170000  72.0450000 144.8900000  39.1620000  73.0570000 143.8180000
  57.0640000  33.0110000 134.5580000  57.8070000  33.5970000 134.4140000
  56.3010000  33.5900000 134.5720000  78.8200000  73.6900000 153.1250000
  78.2680000  73.9290000 153.8700000  78.4550000  74.1820000 152.3890000
  61.4710000  77.0950000 135.2710000  60.8880000  76.3770000 135.0240000
  62.3190000  76.8570000 134.8940000  69.5460000  40.9550000 142.7340000
  70.0590000  40.2440000 142.3510000  68.8130000  41.0740000 142.1300000
  89.0000000  70.9170000 139.8170000  88.9870000  70.2670000 139.1140000
  88.9950000  70.3990000 140.6230000  31.8410000  87.5900000 140.3930000
  31.0000000  87.1650000 140.2260000  32.2900000  87.0030000 141.0020000
  46.6150000  66.9000000 127.1460000  46.0170000  67.0050000 126.4070000
  46.4030000  67.6260000 127.7330000  47.7060000  31.9240000 153.1570000
  47.9210000  32.2100000 154.0440000  47.4720000  31.0000000 153.2530000
  78.3130000  31.0010000 125.4100000  77.6770000  31.0000000 126.1250000
  79.1260000  31.3090000 125.8120000  49.0350000  71.2250000 162.8970000
  48.8050000  71.4170000 163.8060000  49.9780000  71.0650000 162.9160000
  60.7900000  40.3100000 138.6290000  61.4040000  40.7470000 139.2190000
  60.2360000  41.0150000 138.2940000  66.7920000  32.4030000 138.2730000
  66.8000000  32.9260000 139.0740000  66.5210000  33.0160000 137.5890000
  84.0260000  82.2750000 131.6440000  83.4780000  82.7930000 132.2330000
  83.7250000  81.3750000 131.7660000  42.9970000  35.5000000 127.1000000
  42.1690000  35.4710000 126.6200000  43.3870000  36.3390000 126.8550000
  62.0230000  64.2000000 149.6570000  61.5120000  64.8010000 150.1990000
  62.3750000  63.5600000 150.2750000  74.1380000  70.2410000 133.0680000
  74.7660000  70.4550000 132.3780000  74.0230000  71.0610000 133.5500000
  76.7630000  36.2940000 134.5840000  76.6510000  35.3570000 134.7460000
  75.9230000  36.5770000 134.2220000  35.7400000  88.9990000 123.5500000
  35.9320000  88.8900000 124.4810000  34.7840000  89.0000000 123.5000000
  43.7490000  57.1710000 127.4890000  43.0020000  57.4160000 128.0350000
  43.5230000  57.4920000 126.6150000  36.2450000  31.8160000 152.0040000
  35.7650000  31.0000000 152.1460000  35.7720000  32.2530000 151.2960000
  65.8910000  62.3800000 154.8080000  66.3520000  62.5950000 153.9970000
  64.9950000  62.1880000 154.5320000  54.5020000  52.7280000 144.3990000
  54.7840000  53.3170000 143.7000000  54.7420000  53.1820000 145.2070000
  55.3520000  47.4340000 125.8760000  55.0360000  48.3320000 125.7840000
  56.3010000  47.5210000 125.9670000  31.0020000  50.1160000 151.5290000
  31.1000000  50.7840000 150.8510000  31.0880000  49.2840000 151.0620000
  74.9190000  36.0800000 160.8490000  74.2070000  36.6400000 160.5400000
  75.6630000  36.6730000 160.9520000  72.8890000  49.7110000 155.0140000
  72.9280000  49.0910000 155.7420000  72.3050000  50.4050000 155.3210000
  88.5780000  88.0480000 143.2930000  87.7060000  87.7170000 143.0780000
  88.4920000  89.0000000 143.2450000  69.6790000  37.0180000 157.1270000
  70.6030000  36.7740000 157.1870000  69.6840000  37.9750000 157.1010000
  33.9270000  85.0020000 129.5200000  33.6160000  85.2940000 128.6630000
  33.1310000  84.9040000 130.0440000  68.4520000  54.2430000 123.5620000
  69.3140000  53.8270000 123.5750000  68.6390000  55.1800000 123.5050000
  55.8740000  72.4300000 159.5330000  55.5020000  72.2500000 160.3970000
  55.9820000  73.3810000 159.5120000  40.8580000  85.4620000 140.8190000
  40.3440000  84.6680000 140.9610000  40.2230000  86.1060000 140.5040000
  71.9920000  83.2410000 124.5270000  72.6540000  83.4270000 123.8620000
  71.8580000  82.2940000 124.4730000  79.8980000  73.8850000 131.0790000
  79.1440000  74.4730000 131.1030000  79.5170000  73.0070000 131.0650000
  68.5160000  62.9220000 129.1020000  67.6760000  63.0510000 128.6640000
  68.3460000  63.1430000 130.0180000  56.9860000  68.3220000 130.1190000
  56.8370000  67.9650000 130.9940000  56.2620000  68.9340000 129.9840000
  83.1470000  66.4420000 151.6990000  83.2850000  67.2980000 151.2950000
  83.0290000  65.8440000 150.9600000  64.4910000  32.6980000 123.5080000
  64.3780000  32.9530000 124.4240000  64.3310000  31.7540000 123.5000000
  45.6030000  76.3810000 159.0500000  46.3580000  76.7400000 159.5160000
  45.9740000  75.7200000 158.4660000  49.5720000  85.6940000 154.9230000
  49.5250000  84.9800000 154.2870000  48.9260000  85.4630000 155.5910000
  31.5770000  54.7100000 146.3530000  31.0000000  55.4320000 146.5990000
  31.0000000  53.9470000 146.3040000  48.3010000  74.3600000 156.4830000
  47.4160000  74.6800000 156.6590000  48.8210000  75.1530000 156.3490000
  48.8140000  74.0180000 136.5250000  48.7050000  73.2260000 137.0500000
  47.9210000  74.2920000 136.3150000  51.4160000  53.3220000 123.5940000
  51.3010000  54.2710000 123.6430000  50.5270000  52.9770000 123.5000000
  88.9830000  38.7240000 136.0230000  88.4570000  38.8920000 136.8050000
  88.3420000  38.5130000 135.3440000  85.8270000  37.2760000 162.0300000
  86.7800000  37.2460000 162.1120000  85.6640000  37.9410000 161.3610000
  65.6030000  31.9330000 152.9780000  65.9840000  32.5380000 153.6150000
  65.4410000  31.1310000 153.4760000  34.3270000  73.5410000 153.8910000
  34.4820000  74.0800000 153.1150000  35.1090000  72.9910000 153.9600000
  42.0020000  89.0000000 145.9170000  41.7780000  88.9000000 144.9930000
  42.3620000  88.1490000 146.1710000  86.0980000  36.4140000 156.3000000
  86.8630000  36.5880000 156.8480000  86.2630000  35.5470000 155.9270000
  86.6730000  49.2740000 145.4460000  86.0250000  48.6550000 145.7820000
  86.6820000  49.9840000 146.0880000  41.8620000  71.1120000 138.9660000
  42.0350000  72.0510000 139.0280000  42.5460000  70.7790000 138.3850000
  43.2200000  33.1740000 133.8150000  43.0840000  33.6500000 132.9960000
  43.6900000  33.7910000 134.3770000  83.8370000  51.4920000 135.3990000
  83.5600000  50.5830000 135.2900000  84.7920000  51.4470000 135.4600000
  73.4740000  48.6350000 144.7860000  73.3250000  47.7490000 144.4550000
  73.2450000  48.5850000 145.7140000  41.3670000  38.3810000 144.7750000
  41.9350000  38.2470000 144.0160000  41.9480000  38.7310000 145.4510000
  61.9770000  31.5570000 143.8220000  61.9510000  31.0000000 143.0450000
  62.4180000  31.0240000 144.4840000  51.3800000  67.0670000 124.2560000
  51.0080000  66.5910000 123.5140000  50.6840000  67.0690000 124.9130000
  45.3160000  68.3210000 142.1360000  44.6180000  68.3340000 142.7910000
  45.7650000  69.1590000 142.2480000  55.1630000  36.0460000 141.8570000
  55.5090000  36.8350000 142.2720000  55.9200000  35.6480000 141.4280000
  65.7410000  82.2220000 136.1940000  66.4910000  81.8550000 136.6620000
  64.9940000  81.7050000 136.4970000  51.9490000  88.6860000 129.2800000
  52.2960000  89.0000000 130.1150000  51.6190000  87.8080000 129.4730000
  48.1190000  46.7610000 141.9020000  48.3990000  46.1400000 142.5750000
  47.8690000  47.5460000 142.3890000  38.4810000  56.2120000 148.0440000
  39.2140000  56.3950000 147.4560000  38.1640000  55.3510000 147.7720000
  80.2150000  46.4900000 126.0650000  80.1540000  46.3450000 127.0090000
  80.1680000  47.4410000 125.9640000  78.9120000  83.4300000 128.3120000
  78.3970000  83.2680000 129.1020000  79.5040000  82.6790000 128.2540000
  35.6660000  83.3960000 161.5640000  35.7170000  83.5060000 160.6150000
  34.8070000  83.0000000 161.7140000  31.4310000  68.7850000 125.6880000
  32.3310000  68.7910000 126.0140000  31.0000000  69.4970000 126.1610000
  58.6030000  81.6080000 137.8730000  58.6050000  81.1300000 137.0440000
  59.1210000  81.0630000 138.4660000  50.8540000  47.2570000 134.7680000
  51.7670000  47.0280000 134.5920000  50.5500000  47.6700000 133.9600000
  57.7240000  65.4450000 138.8960000  57.5820000  66.3150000 139.2690000
  58.5100000  65.5410000 138.3580000  42.2100000  71.2030000 155.1650000
  42.5550000  72.0640000 155.4010000  42.0940000  71.2430000 154.2160000
  70.5450000  31.5410000 123.5000000  71.1770000  31.0000000 123.9720000
  69.7330000  31.0330000 123.5170000  50.5740000  59.8740000 160.7700000
  50.5110000  60.5040000 160.0520000  50.6520000  60.4150000 161.5570000
  68.6830000  52.8420000 146.9640000  69.2510000  52.1340000 147.2670000
  68.9210000  52.9640000 146.0440000  51.7990000  71.6420000 134.6390000
  51.0880000  72.2810000 134.5930000  52.5980000  72.1670000 134.5780000
  53.5510000  84.7090000 140.4830000  54.4260000  84.7620000 140.0970000
  53.0490000  84.1760000 139.8660000  75.3720000  86.6760000 153.2090000
  76.1320000  86.2460000 152.8180000  75.6530000  86.8980000 154.0980000
  33.9210000  53.9890000 156.7350000  34.3730000  53.1480000 156.8050000
  34.5750000  54.5820000 156.3640000  82.9580000  55.6210000 138.5370000
  83.8970000  55.4620000 138.4440000  82.7550000  56.2650000 137.8580000
  52.7260000  78.0620000 153.0770000  53.3520000  78.7810000 153.1670000
  52.3830000  78.1530000 152.1880000  67.2320000  41.1720000 125.4570000
  67.6620000  40.3190000 125.3930000  66.4000000  40.9890000 125.8940000
  83.6840000  70.9450000 130.9810000  83.1960000  71.0470000 130.1640000
  83.1850000  70.2980000 131.4800000  31.0000000  69.2380000 158.0350000
  31.7400000  68.9210000 158.5520000  31.2440000  69.0520000 157.1280000
  55.0320000  34.3240000 138.8580000  54.1050000  34.1780000 139.0420000
  55.1270000  35.2770000 138.8440000  81.7130000  71.2250000 144.0710000
  82.1080000  70.9740000 144.9060000  80.8460000  70.8200000 144.0840000
  62.3740000  52.5250000 139.2540000  61.8170000  53.2720000 139.4760000
  61.7600000  51.8040000 139.1090000  76.8610000  31.0000000 141.0880000
  76.0920000  31.0000000 140.5200000  76.5040000  31.0440000 141.9760000
  31.9050000  47.9290000 160.2640000  31.0790000  47.7280000 160.7020000
  32.5450000  47.9920000 160.9730000  59.1190000  83.3440000 149.3810000
  59.2900000  84.1220000 149.9120000  58.6810000  83.6780000 148.5980000
  63.6090000  45.8570000 155.9540000  63.5390000  46.6520000 155.4250000
  64.2150000  45.2980000 155.4680000  32.8430000  72.1010000 152.0910000
  33.6900000  71.6920000 151.9140000  32.8660000  72.9220000 151.6000000
  47.3320000  72.3970000 142.8360000  47.4320000  72.1120000 141.9280000
  46.9120000  73.2550000 142.7740000  61.9090000  81.2710000 127.3870000
  61.0200000  80.9820000 127.1800000  61.9520000  81.2460000 128.3430000
  68.1670000  42.8120000 131.3460000  67.5550000  42.1360000 131.0550000
  67.8190000  43.6240000 130.9770000  73.8820000  33.4780000 146.8450000
  73.2580000  33.4130000 147.5680000  74.7400000  33.4940000 147.2700000
  88.4490000  60.2960000 140.6920000  89.0000000  60.9590000 141.1080000
  88.9980000  59.5130000 140.6600000  63.9690000  68.2750000 126.5720000
  63.7750000  69.0050000 125.9840000  64.1000000  68.6840000 127.4270000
  84.7600000  32.9310000 127.7810000  85.1390000  33.5490000 128.4060000
  84.2910000  33.4820000 127.1530000  88.6800000  82.5770000 134.2060000
  88.8290000  82.4030000 135.1350000  89.0000000  83.4700000 134.0750000
  84.7090000  50.4130000 147.5630000  84.3960000  50.3760000 148.4670000
  84.1540000  49.7910000 147.0920000  67.7710000  87.6250000 126.2810000
  66.9420000  87.2320000 126.0110000  67.6880000  88.5490000 126.0410000
  45.6700000  48.9530000 141.9990000  44.7220000  49.0650000 141.9390000
  46.0280000  49.6270000 141.4200000  63.1560000  42.5870000 157.0010000
  63.0300000  43.4970000 156.7350000  63.1620000  42.6140000 157.9580000
  56.0090000  31.0990000 140.2720000  56.2940000  31.0000000 141.1800000
  56.8110000  31.0020000 139.7570000  60.1700000  88.9980000 127.3810000
  59.4820000  88.9990000 126.7160000  60.9860000  88.9990000 126.8810000
  83.7280000  34.1000000 151.6020000  82.8130000  34.3820000 151.5720000
  83.9320000  33.8530000 150.6990000  39.5130000  36.6430000 151.1610000
  39.9440000  37.4580000 150.9090000  39.6060000  36.0750000 150.3960000
  40.3050000  62.3690000 135.3310000  40.9770000  63.0350000 135.4760000
  40.7580000  61.5360000 135.4660000  38.4970000  86.1990000 163.5690000
  38.1940000  87.0330000 163.2110000  39.3260000  86.4100000 164.0000000
  40.8250000  53.7030000 159.8560000  41.5410000  54.2830000 159.5950000
  40.1310000  54.2950000 160.1460000  39.4260000  79.8670000 126.2440000
  38.8430000  79.1110000 126.3090000  38.8450000  80.6020000 126.0490000
  36.3590000  80.9390000 125.9920000  36.4670000  81.8830000 125.8800000
  35.5260000  80.7400000 125.5630000  69.6290000  41.1350000 153.6060000
  69.8530000  40.2190000 153.7700000  69.8160000  41.5800000 154.4330000
  36.5640000  35.9140000 161.3020000  35.7530000  36.1900000 161.7280000
  36.7460000  35.0480000 161.6680000  63.5840000  61.0080000 148.3150000
  63.3610000  61.6150000 149.0210000  63.2220000  60.1680000 148.5970000
  43.2180000  88.9320000 137.3350000  42.8610000  88.8840000 138.2220000
  44.1650000  89.0000000 137.4610000  36.7440000  75.5340000 132.3900000
  37.0070000  76.3240000 131.9190000  36.3880000  74.9580000 131.7130000
  76.4220000  86.3190000 161.4000000  76.8960000  85.4910000 161.3260000
  77.1030000  86.9910000 161.3590000  51.2570000  51.9010000 163.2430000
  51.8840000  52.1700000 163.9140000  51.3970000  52.5180000 162.5240000
  46.4990000  62.8660000 137.4130000  46.6310000  63.8030000 137.5580000
  46.0620000  62.8130000 136.5630000  42.5020000  49.7350000 153.8890000
  42.1620000  48.8440000 153.9770000  41.7290000  50.2950000 153.9570000
  72.7140000  76.8210000 136.4150000  73.2470000  76.0260000 136.3850000
  71.9070000  76.5520000 136.8540000  33.5620000  88.9920000 157.1160000
  33.5090000  88.0640000 157.3450000  33.9280000  89.0000000 156.2310000
  62.3320000  71.5280000 130.8450000  62.8460000  70.7290000 130.7260000
  62.9060000  72.2300000 130.5370000  48.4830000  83.1760000 145.1930000
  47.8220000  82.9510000 145.8480000  48.6740000  82.3480000 144.7510000
  69.9620000  31.0060000 141.8310000  70.4490000  31.0000000 142.6550000
  70.0850000  31.8910000 141.4860000  59.8330000  37.6740000 153.9870000
  60.0430000  37.4280000 154.8880000  58.9540000  38.0500000 154.0400000
  31.5860000  65.4420000 143.1080000  31.0000000  66.1990000 143.1240000
  31.0000000  64.6850000 143.1010000  81.8720000  36.5970000 130.7060000
  82.7820000  36.8510000 130.5580000  81.9090000  35.9890000 131.4440000
  58.7840000  38.7760000 161.7420000  58.2580000  39.5710000 161.6580000
  58.1520000  38.0940000 161.9720000  83.9010000  82.5080000 147.3240000
  83.2220000  82.9130000 147.8630000  84.4360000  83.2420000 147.0210000
  78.1380000  61.9980000 133.3040000  78.9330000  62.5310000 133.3040000
  77.8290000  62.0300000 134.2100000  46.7470000  70.9730000 149.2630000
  45.8310000  71.0670000 149.0000000  46.7840000  71.3500000 150.1420000
  82.9590000  81.4600000 161.6100000  83.3650000  82.0560000 160.9800000
  82.4950000  82.0360000 162.2190000  47.5080000  44.8610000 123.5240000
  46.5570000  44.7570000 123.5000000  47.7480000  44.6670000 124.4300000
  46.8320000  37.7810000 147.2390000  47.6870000  37.8930000 147.6540000
  46.2220000  37.6790000 147.9710000  89.0000000  51.4390000 133.6420000
  88.3600000  51.7940000 133.0250000  88.8590000  50.4920000 133.6160000
  54.2000000  59.0260000 138.9460000  53.3120000  58.6740000 138.9940000
  54.2110000  59.7380000 139.5860000  59.9050000  38.4200000 124.0720000
  59.2980000  38.9060000 123.5130000  60.2280000  37.7110000 123.5150000
  36.9430000  70.8550000 147.7170000  37.7970000  71.0840000 147.3510000
  36.9960000  69.9120000 147.8770000  61.6350000  40.0730000 153.5890000
  60.7370000  40.1430000 153.9120000  61.9870000  39.2950000 154.0240000
  54.6980000  39.2760000 130.2880000  54.7550000  38.3370000 130.4640000
  54.2590000  39.3350000 129.4390000  65.9330000  46.1470000 134.6230000
  65.6380000  46.6110000 133.8390000  65.1610000  45.6650000 134.9210000
  49.4310000  43.8090000 149.2520000  50.0920000  44.2470000 148.7160000
  49.6720000  42.8820000 149.2210000  39.6410000  48.1110000 130.8800000
  40.1590000  48.9000000 131.0350000  38.8950000  48.4110000 130.3600000
  35.5520000  70.2530000 149.9060000  35.4100000  71.1930000 149.7980000
  34.6880000  69.9040000 150.1280000  34.2640000  77.9680000 125.9730000
  34.6360000  77.0930000 125.8570000  34.4820000  78.2040000 126.8750000
  58.9590000  56.9170000 143.4340000  58.3630000  57.2970000 144.0800000
  58.4410000  56.8650000 142.6310000  87.2420000  64.5680000 155.2660000
  86.3990000  64.6960000 154.8300000  87.1600000  63.7180000 155.7000000
  84.3530000  64.6320000 147.6220000  83.9220000  63.8080000 147.3990000
  85.2800000  64.4050000 147.6980000  77.5270000  79.3450000 162.3610000
  78.2410000  79.9620000 162.2010000  76.7940000  79.6870000 161.8490000
  76.3410000  75.8730000 131.9880000  76.8500000  75.2720000 132.5320000
  76.9790000  76.2410000 131.3760000  43.2620000  49.3830000 126.3160000
  43.2680000  48.4630000 126.5770000  42.4330000  49.4950000 125.8510000
  31.1520000  31.5850000 157.1490000  31.2100000  31.0000000 156.3930000
  31.0210000  31.0000000 157.8960000  51.1420000  48.4480000 130.6860000
  51.6800000  47.6970000 130.4370000  50.7510000  48.1980000 131.5230000
  41.7690000  41.5300000 162.0240000  40.8930000  41.8890000 161.8800000
  41.6180000  40.6070000 162.2310000  41.6960000  78.5320000 137.4330000
  42.4360000  78.4090000 138.0280000  41.0050000  78.9020000 137.9830000
  69.3220000  71.8890000 135.3610000  69.6690000  72.1170000 136.2240000
  68.9810000  72.7140000 135.0140000  76.7950000  47.0900000 131.9050000
  76.8910000  46.3780000 131.2730000  77.6840000  47.2550000 132.2190000
  83.2460000  81.3480000 144.8800000  83.4620000  82.0340000 144.2480000
  82.2900000  81.3500000 144.9180000  61.1660000  38.5970000 151.5140000
  60.7310000  37.7470000 151.4470000  62.0810000  38.3840000 151.6970000
  32.6850000  65.8370000 159.1980000  33.4160000  66.2210000 158.7140000
  32.0480000  66.5470000 159.2740000  34.6490000  78.9100000 133.6790000
  33.9220000  78.9680000 134.2990000  34.4130000  79.5170000 132.9760000
  59.1290000  43.7600000 146.5780000  58.3020000  44.1780000 146.8200000
  59.7120000  44.4880000 146.3630000  84.4170000  76.8020000 143.5490000
  84.3800000  76.0510000 144.1420000  84.7730000  76.4470000 142.7340000
  82.2620000  43.3020000 124.2660000  81.5440000  42.6720000 124.2180000
  82.9370000  42.8590000 124.7810000  33.0330000  42.1630000 138.0610000
  33.1680000  41.9900000 138.9930000  33.3890000  43.0410000 137.9260000
  70.7080000  73.2150000 129.5220000  70.5830000  72.3180000 129.8290000
  70.2620000  73.7570000 130.1730000  46.6890000  76.3330000 141.2250000
  47.1040000  77.1910000 141.1390000  47.4210000  75.7180000 141.2810000
  31.0140000  42.0550000 154.1210000  31.0000000  42.5360000 153.2940000
  31.0000000  41.1330000 153.8620000  82.0620000  47.0100000 149.9390000
  82.1110000  47.0260000 148.9830000  82.7890000  47.5650000 150.2250000
  60.6950000  73.0880000 135.9120000  59.8260000  72.6940000 135.9870000
  60.5330000  74.0310000 135.9240000  42.1930000  41.8990000 146.8920000
  42.9140000  41.4500000 146.4510000  41.9280000  41.2990000 147.5900000
  88.9680000  53.9310000 143.8420000  89.0000000  54.7430000 144.3480000
  88.9600000  54.2180000 142.9280000  78.8630000  72.6750000 162.4310000
  79.4940000  72.0630000 162.8090000  79.3990000  73.3040000 161.9470000
  64.4260000  33.5750000 142.9290000  63.4870000  33.4560000 142.7900000
  64.5310000  34.5180000 143.0600000  72.3380000  58.9030000 154.8650000
  73.1320000  58.6550000 155.3380000  72.4270000  59.8460000 154.7250000
  66.9810000  78.4840000 149.0240000  67.2420000  77.7350000 148.4890000
  66.4740000  78.1030000 149.7420000  45.5840000  57.4350000 163.9690000
  46.3970000  57.9380000 163.9700000  44.8920000  58.0960000 164.0000000
  32.2690000  55.8310000 133.8080000  32.2980000  56.7750000 133.9590000
  33.1210000  55.5130000 134.1080000  32.0200000  61.4750000 143.6320000
  31.1530000  61.8070000 143.8640000  32.4520000  61.3250000 144.4730000
  46.8580000  64.6610000 155.4860000  46.0150000  64.9350000 155.8480000
  47.2970000  64.2150000 156.2100000  37.2680000  67.3350000 151.0550000
  37.6350000  68.0500000 150.5350000  37.9800000  66.6980000 151.1240000
  57.9190000  45.2290000 128.4960000  57.3390000  44.4960000 128.2910000
  57.9450000  45.7470000 127.6910000  37.2840000  75.4260000 138.4520000
  36.7360000  76.1920000 138.2820000  38.1500000  75.6740000 138.1270000
  83.6760000  55.2380000 141.3370000  84.1940000  54.7870000 142.0040000
  82.9560000  54.6370000 141.1460000  73.3830000  39.0530000 151.9180000
  73.1150000  39.0700000 151.0000000  73.9460000  38.2810000 151.9900000
  69.3030000  45.6860000 162.1030000  69.8800000  45.9090000 162.8340000
  69.5520000  44.7930000 161.8650000  34.4890000  66.9140000 126.0960000
  35.1010000  67.6410000 126.2090000  33.8840000  66.9930000 126.8340000
  33.3760000  36.3520000 130.1880000  34.0280000  35.6540000 130.1370000
  33.5560000  36.7880000 131.0210000  45.1600000  61.3200000 142.0170000
  44.2390000  61.3450000 141.7580000  45.3110000  60.4110000 142.2770000
  59.1500000  54.3390000 126.9350000  60.0480000  54.6680000 126.9290000
  58.6070000  55.1210000 126.8300000  67.5050000  51.8950000 143.5030000
  66.6900000  51.3940000 143.5200000  67.2240000  52.8110000 143.4960000
  31.0000000  81.2650000 137.3740000  31.3060000  81.2070000 138.2790000
  31.0680000  82.1950000 137.1570000  88.7370000  88.9910000 135.0440000
  87.8140000  88.7440000 135.1060000  88.9200000  89.0000000 134.1050000
  80.4830000  55.3370000 135.7410000  80.2560000  54.7740000 136.4810000
  81.4130000  55.5300000 135.8630000  62.6590000  64.3150000 131.5270000
  61.7770000  64.6850000 131.5570000  62.5250000  63.3950000 131.2980000
  53.3470000  71.7510000 138.0790000  54.1950000  72.0730000 137.7740000
  53.0620000  72.3990000 138.7240000  77.4090000  49.4030000 130.5590000
  78.2730000  49.8120000 130.5040000  77.4830000  48.6140000 130.0220000
  73.6360000  64.9710000 145.6760000  74.1400000  65.5090000 146.2870000
  74.2970000  64.5120000 145.1580000  83.0590000  45.1070000 159.2810000
  83.8770000  45.6020000 159.3280000  82.4030000  45.7520000 159.0140000
  87.7060000  88.5900000 145.5830000  88.5940000  88.9100000 145.7410000
  87.1840000  88.9680000 146.2900000  53.7090000  31.5850000 138.8850000
  53.9860000  31.0000000 138.1800000  53.3550000  31.0000000 139.5560000
  44.2210000  61.4130000 129.7160000  44.1070000  61.1740000 128.7960000
  43.4640000  61.0310000 130.1590000  85.5330000  42.9390000 154.3520000
  85.6560000  42.1710000 153.7950000  86.3470000  43.4340000 154.2620000
  56.1620000  61.0310000 144.5460000  56.6890000  60.9110000 143.7560000
  56.4380000  61.8800000 144.8920000  70.5800000  51.2670000 138.9980000
  71.2030000  50.7120000 139.4660000  69.9090000  50.6610000 138.6820000
  63.9980000  75.2290000 160.3050000  64.1300000  75.6850000 159.4740000
  64.8810000  75.0970000 160.6500000  71.0260000  36.6980000 136.2410000
  71.9150000  36.3870000 136.0690000  70.7230000  37.0370000 135.3980000
  78.4390000  69.5790000 125.9740000  78.9870000  68.7950000 125.9510000
  79.0600000  70.3070000 125.9980000  84.2850000  86.2150000 132.3330000
  83.8050000  85.4670000 131.9780000  84.8770000  86.4780000 131.6280000
  69.4700000  83.0770000 136.8850000  68.5700000  83.4030000 136.9170000
  69.3850000  82.1650000 136.6080000  31.0140000  63.3320000 161.3280000
  31.0000000  62.3850000 161.1930000  31.9410000  63.5460000 161.4340000
  77.6190000  40.7720000 129.0860000  78.4550000  41.2240000 128.9670000
  77.6570000  40.4310000 129.9800000  72.6370000  83.2010000 137.2400000
  73.3510000  82.7300000 136.8110000  72.9980000  84.0690000 137.4230000
  57.0690000  78.1450000 154.8710000  56.1150000  78.2100000 154.8290000
  57.3710000  79.0530000 154.9040000  47.9700000  49.3180000 145.2210000
  48.6290000  48.6900000 144.9230000  47.4100000  49.4590000 144.4580000
  58.7510000  73.6290000 157.4040000  58.1430000  73.0850000 156.9040000
  58.2960000  73.8010000 158.2290000  38.3870000  86.2580000 148.3820000
  37.5470000  86.6290000 148.6510000  38.3420000  86.2300000 147.4260000
  53.4840000  81.0150000 159.1730000  53.0720000  80.4530000 158.5170000
  54.4030000  80.7480000 159.1740000  31.4180000  52.2520000 144.2300000
  31.7640000  51.6200000 143.6000000  31.0000000  51.7160000 144.9040000
  72.1390000  89.0000000 123.5080000  73.0770000  88.8080000 123.5110000
  71.7180000  88.1400000 123.5000000  72.7500000  46.4740000 161.6950000
  71.8860000  46.4150000 161.2870000  72.8810000  47.4100000 161.8460000
  65.6350000  37.0780000 133.5770000  66.2160000  36.3230000 133.6620000
  66.1990000  37.7790000 133.2490000  31.5870000  39.3980000 136.6600000
  31.0030000  38.6410000 136.6810000  31.0000000  40.1530000 136.6110000
  77.9580000  37.7400000 152.9170000  78.0040000  36.7860000 152.8620000
  78.8710000  38.0210000 152.9890000  80.7070000  43.4500000 133.8930000
  79.8020000  43.7480000 133.9830000  80.6930000  42.5440000 134.2010000
  59.8700000  36.9270000 138.9590000  59.0070000  37.2470000 139.2220000
  60.1320000  36.3370000 139.6660000  80.3280000  42.9100000 149.4750000
  81.1540000  43.1240000 149.0420000  80.3050000  41.9520000 149.4870000
  73.1550000  79.5870000 157.1570000  72.6860000  79.9590000 156.4100000
  73.0630000  78.6400000 157.0520000  35.7090000  57.7250000 129.4020000
  35.4800000  56.9520000 129.9180000  35.8450000  57.3890000 128.5160000
  74.9590000  49.3300000 141.6450000  74.4970000  48.6750000 142.1680000
  74.5290000  50.1580000 141.8610000  38.8990000  60.9910000 132.8210000
  39.0300000  61.0950000 131.8780000  39.7580000  61.1730000 133.2040000
  74.4300000  70.4210000 163.8970000  73.6430000  70.4340000 163.3520000
  74.6350000  69.4910000 164.0000000  80.2220000  78.9130000 150.9940000
  80.6760000  78.3150000 150.4000000  79.7730000  79.5290000 150.4150000
  77.8830000  41.7240000 156.9780000  77.2660000  42.4450000 156.8570000
  78.6990000  42.1480000 157.2430000  57.5850000  61.2250000 154.6500000
  57.7430000  62.0060000 155.1790000  57.1750000  61.5550000 153.8500000
  57.2400000  50.4880000 163.5000000  56.8280000  51.2760000 163.8560000
  56.6520000  49.7760000 163.7510000  34.6950000  31.5580000 144.8170000
  35.4120000  31.0000000 145.1170000  33.9180000  31.0000000 144.8710000
  44.5100000  31.0000000 142.4880000  45.0110000  31.3390000 143.2290000
  44.2190000  31.7820000 142.0170000  37.7520000  38.1660000 160.9150000
  37.8340000  37.7380000 160.0630000  38.3350000  37.6690000 161.4900000
  54.5450000  85.3610000 150.3920000  54.6540000  86.1920000 150.8560000
  54.1430000  84.7780000 151.0370000  76.0160000  78.1570000 156.6750000
  76.3920000  77.3500000 156.3250000  76.4320000  78.2650000 157.5300000
  85.0420000  72.9330000 151.2020000  85.9410000  72.7190000 150.9540000
  84.5330000  72.1610000 150.9530000  37.1750000  74.4640000 155.1050000
  36.3600000  74.9310000 154.9190000  37.4170000  74.0630000 154.2700000
  69.8420000  80.6530000 158.0910000  69.5830000  80.0830000 158.8150000
  70.7710000  80.4650000 157.9590000  81.3060000  74.8530000 150.8390000
  80.9690000  75.7470000 150.7790000  80.5280000  74.3100000 150.9650000
  48.1160000  44.4690000 157.3060000  48.7520000  45.1640000 157.1370000
  48.3390000  44.1480000 158.1800000  54.8180000  49.8920000 150.1250000
  55.3900000  50.4480000 149.5960000  54.5420000  50.4520000 150.8500000
  79.2170000  69.9720000 151.0890000  79.8660000  70.5990000 150.7710000
  79.6640000  69.1260000 151.0590000  67.5960000  88.8320000 157.7860000
  66.8940000  89.0000000 158.4150000  67.8540000  87.9240000 157.9520000
  58.0550000  45.3030000 152.7140000  57.6420000  44.4630000 152.9150000
  57.8600000  45.4510000 151.7880000  34.6100000  47.0290000 140.1530000
  35.0850000  47.0640000 140.9830000  33.7340000  46.7220000 140.3900000
  82.7220000  58.4060000 133.6430000  83.2020000  58.1070000 134.4140000
  82.7440000  57.6610000 133.0420000  60.5400000  79.9820000 140.5910000
  61.1460000  80.6960000 140.3900000  60.7420000  79.7420000 141.4950000
  47.0230000  50.0510000 160.7790000  46.7410000  49.6070000 159.9790000
  47.6360000  49.4400000 161.1890000  66.4330000  35.5940000 152.7120000
  67.2360000  35.7210000 153.2170000  66.6690000  34.9510000 152.0430000
  67.5660000  71.7220000 147.8880000  68.1140000  72.5060000 147.8540000
  67.9450000  71.1360000 147.2320000  68.8720000  68.8870000 138.8000000
  68.0460000  68.7490000 138.3370000  69.1840000  68.0050000 139.0010000
  61.8730000  49.7550000 161.2420000  62.3140000  48.9070000 161.1910000
  60.9700000  49.5430000 161.4780000  74.9050000  79.3510000 159.6870000
  74.5470000  78.6300000 159.1680000  74.1350000  79.8150000 160.0150000
  76.7190000  45.5870000 134.1320000  75.9810000  46.1960000 134.0940000
  76.8990000  45.4870000 135.0680000  57.8470000  36.4580000 123.5000000
  57.0760000  35.9010000 123.6120000  58.0240000  36.8020000 124.3760000
  64.8030000  68.5380000 154.0270000  65.5370000  69.1280000 154.1940000
  65.0650000  68.0430000 153.2500000  38.5950000  68.8740000 158.3350000
  37.8250000  69.4390000 158.2730000  38.3510000  68.2050000 158.9760000
  88.9440000  45.5860000 158.0220000  89.0000000  44.6360000 157.9230000
  89.0000000  45.7320000 158.9670000  41.2540000  61.1470000 151.2910000
  40.5040000  60.5610000 151.1890000  40.8740000  62.0260000 151.2930000
  85.5780000  61.7950000 155.9160000  86.1150000  61.3920000 155.2350000
  84.8450000  61.1900000 156.0340000  66.0600000  61.1960000 130.6120000
  65.1550000  61.2090000 130.2980000  66.0560000  60.5620000 131.3290000
  76.0150000  81.6090000 149.7810000  75.2930000  81.6440000 150.4080000
  76.5780000  80.9050000 150.1020000  57.6080000  75.7790000 145.1540000
  56.8000000  75.2870000 145.0110000  57.3740000  76.6860000 144.9560000
  52.5460000  44.3110000 127.5520000  52.4660000  44.9010000 126.8030000
  51.7540000  44.4660000 128.0660000  52.9080000  42.0020000 136.1780000
  53.5950000  42.0690000 135.5160000  52.4330000  42.8320000 136.1160000
  35.7480000  56.9440000 149.7040000  35.9160000  56.0780000 150.0770000
  36.5910000  57.2170000 149.3430000  39.1000000  84.1850000 127.0210000
  38.7750000  84.6520000 127.7900000  38.3100000  83.9220000 126.5480000
  61.5470000  61.4300000 140.3400000  60.9330000  60.7060000 140.4600000
  61.1030000  62.0240000 139.7360000  73.9870000  75.1830000 147.4290000
  73.8840000  74.4180000 147.9940000  73.2980000  75.0910000 146.7710000
  40.9350000  64.8760000 137.1660000  41.2460000  65.4490000 136.4640000
  41.7130000  64.3910000 137.4420000  70.3770000  31.8820000 130.4850000
  71.3000000  31.7560000 130.2650000  70.0500000  31.0000000 130.6630000
  57.9510000  44.5560000 144.3100000  57.9530000  45.4030000 143.8660000
  57.0660000  44.4740000 144.6670000  68.6920000  85.8710000 152.7600000
  69.0430000  85.1280000 152.2700000  67.7770000  85.6400000 152.9230000
  60.4920000  46.2750000 154.5630000  61.1630000  45.8800000 155.1180000
  59.8390000  45.5840000 154.4470000  60.2520000  31.2930000 136.4450000
  59.8840000  31.0000000 137.2790000  61.1640000  31.0020000 136.4710000
  40.4640000  78.8370000 157.2320000  39.6290000  78.7550000 156.7720000
  40.9120000  79.5590000 156.7890000  78.0200000  44.8390000 157.0850000
  78.8340000  45.3390000 157.1480000  77.3290000  45.4910000 157.1950000
  35.4310000  43.7960000 129.8320000  35.1120000  43.8550000 128.9310000
  35.8970000  42.9610000 129.8670000  88.4140000  31.9200000 141.5250000
  89.0000000  32.6760000 141.5190000  89.0000000  31.1630000 141.5520000
  80.3220000  39.6960000 161.6250000  79.5420000  39.5430000 161.0920000
  80.5040000  38.8490000 162.0330000  47.9510000  71.9240000 134.7130000
  48.5880000  72.4010000 134.1820000  48.4830000  71.3680000 135.2840000
  85.6640000  66.0550000 144.0260000  85.3710000  65.6720000 144.8530000
  85.0100000  65.7750000 143.3860000  76.5490000  84.1610000 144.7740000
  76.0830000  84.6040000 145.4820000  76.8910000  84.8720000 144.2300000
  68.4930000  40.3190000 129.1830000  67.7740000  40.2500000 128.5540000
  68.9070000  39.4560000 129.1700000  43.8280000  83.1610000 130.0240000
  44.0260000  82.3010000 130.3940000  44.2770000  83.7790000 130.6000000
  82.8670000  81.6480000 157.7120000  82.9950000  82.3730000 157.1010000
  81.9610000  81.3730000 157.5710000  85.4990000  68.3930000 158.4710000
  84.8400000  68.7660000 157.8860000  86.1950000  69.0510000 158.4980000
  69.0950000  53.8020000 140.4050000  69.2190000  54.6030000 139.8960000
  69.9510000  53.6360000 140.8020000  76.3990000  87.2900000 144.6260000
  76.6220000  87.0450000 145.5230000  75.5050000  86.9690000 144.5040000
  76.0090000  88.3420000 139.5750000  76.7710000  88.9210000 139.5670000
  75.2580000  88.9340000 139.6270000  45.8880000  60.2200000 157.9340000
  46.4240000  60.9310000 158.2840000  46.1030000  60.1950000 157.0010000
  31.3840000  72.3270000 144.5660000  31.0000000  72.9850000 143.9870000
  31.0000000  71.4990000 144.2760000  66.9870000  33.9450000 134.9890000
  66.5600000  34.5400000 135.6050000  67.7300000  33.5880000 135.4770000
  69.5260000  86.4090000 164.0000000  69.7230000  86.5680000 163.0770000
  68.6310000  86.0680000 163.9980000  73.9320000  37.3510000 156.5930000
  73.8740000  38.3070000 156.5750000  73.0210000  37.0560000 156.6200000
  39.8020000  57.4660000 131.9370000  38.8690000  57.2520000 131.9220000
  39.8370000  58.3630000 132.2690000  49.6260000  69.8240000 132.4940000
  49.9330000  70.3250000 133.2480000  48.7950000  70.2350000 132.2540000
  51.7540000  80.4400000 133.4900000  51.8640000  81.0230000 134.2410000
  52.5900000  79.9770000 133.4210000  66.4440000  51.3910000 163.9960000
  66.2980000  52.3370000 164.0000000  66.0800000  51.0950000 163.1620000
  35.0930000  66.9650000 154.9400000  34.3390000  66.5030000 155.3060000
  34.8110000  67.8790000 154.8870000  61.5870000  40.6700000 143.5240000
  61.8540000  40.2420000 144.3380000  62.1150000  40.2470000 142.8460000
  75.3180000  39.1390000 154.6650000  76.2500000  39.1160000 154.4520000
  75.1770000  40.0110000 155.0340000  53.4900000  59.5380000 123.5590000
  54.2710000  58.9890000 123.5000000  52.7600000  58.9190000 123.5530000
  75.6080000  88.8250000 159.4930000  74.9210000  88.4960000 158.9140000
  75.1610000  89.0000000 160.3210000  81.9520000  88.9590000 137.7950000
  81.2240000  88.9990000 137.1740000  81.5360000  89.0000000 138.6560000
  51.4400000  81.2560000 143.7940000  50.7090000  81.3750000 143.1870000
  51.1090000  81.5720000 144.6340000  65.9010000  65.4990000 148.8900000
  66.8370000  65.5950000 149.0680000  65.7310000  64.5630000 149.0010000
  48.2690000  50.0810000 150.4150000  48.8200000  49.3680000 150.7370000
  47.4130000  49.6770000 150.2700000  63.3710000  48.2370000 123.5880000
  62.7400000  48.9420000 123.7300000  64.2090000  48.6040000 123.8700000
  74.3340000  56.9660000 147.1120000  73.9480000  56.1750000 147.4890000
  74.4990000  57.5350000 147.8650000  75.7320000  45.5870000 128.7650000
  75.2180000  46.0110000 129.4520000  75.1160000  44.9900000 128.3380000
  54.4910000  33.2620000 150.9850000  55.1050000  32.5350000 150.8780000
  54.5520000  33.4920000 151.9130000  71.6890000  39.7490000 147.6650000
  70.9190000  40.2280000 147.3580000  71.5730000  39.6920000 148.6140000
  73.3790000  64.8000000 129.2480000  73.2190000  65.7440000 129.2580000
  73.0010000  64.5010000 128.4200000  66.8690000  76.9090000 136.7560000
  66.5220000  76.0640000 136.4680000  67.5290000  77.1330000 136.0990000
  57.7240000  52.7840000 135.1400000  57.8360000  53.2870000 134.3340000
  58.3170000  52.0380000 135.0420000  84.0240000  57.0480000 147.0050000
  84.3490000  57.8230000 147.4630000  84.3380000  57.1500000 146.1070000
  44.2580000  83.7730000 149.3090000  43.8620000  84.6340000 149.1750000
  45.1360000  83.9610000 149.6400000  33.7190000  83.2220000 148.3200000
  34.2980000  83.7400000 147.7610000  33.0660000  83.8470000 148.6340000
  83.5040000  47.0950000 139.9230000  83.2120000  46.1840000 139.9450000
  82.6950000  47.6060000 139.9170000  85.8950000  65.0710000 135.1770000
  86.3560000  65.7290000 135.6970000  86.5850000  64.4800000 134.8720000
  51.1360000  84.3130000 136.5620000  51.4860000  83.5610000 137.0400000
  51.8710000  84.6250000 136.0340000  49.6990000  51.5940000 160.5960000
  49.1020000  52.3310000 160.7270000  50.4990000  51.9920000 160.2500000
  72.1530000  69.2400000 123.5550000  72.9920000  69.7000000 123.5610000
  72.3880000  68.3130000 123.5060000  41.8240000  35.3060000 145.6910000
  41.9380000  34.8040000 146.4980000  41.8340000  36.2200000 145.9750000
  44.9200000  65.5070000 149.1550000  44.7990000  66.0570000 148.3810000
  44.6930000  66.0760000 149.8910000  50.3870000  33.3870000 135.1260000
  49.8790000  32.6700000 134.7490000  51.2200000  33.3650000 134.6540000
  71.3460000  42.7030000 132.3060000  70.5270000  42.3800000 132.6800000
  71.7610000  41.9260000 131.9290000  75.0910000  48.5810000 163.8500000
  74.1470000  48.6180000 164.0000000  75.2080000  47.8580000 163.2330000
  43.3750000  80.4850000 149.9720000  43.1480000  81.2690000 149.4720000
  42.7100000  80.4380000 150.6590000  37.5080000  31.0040000 143.7530000
  38.4290000  31.0610000 144.0080000  37.2280000  31.9150000 143.6620000
  84.7050000  75.7030000 123.5760000  85.6560000  75.5970000 123.5410000
  84.5670000  76.6480000 123.5000000  85.5900000  43.4120000 123.5000000
  84.8830000  44.0550000 123.5580000  86.3920000  43.9300000 123.5780000
  54.5450000  78.7910000 140.0350000  54.7390000  77.9050000 140.3400000
  53.6170000  78.7660000 139.8010000  61.9760000  79.6140000 152.3630000
  61.7400000  79.0570000 151.6220000  62.8520000  79.9380000 152.1510000
  77.9240000  81.0970000 141.8000000  77.6620000  80.8520000 140.9130000
  78.0920000  80.2630000 142.2390000  72.5940000  83.9450000 160.5020000
  71.9260000  84.2090000 159.8700000  72.1210000  83.8590000 161.3300000
  34.7210000  31.0040000 135.6950000  33.8480000  31.1280000 136.0670000
  35.3060000  31.0000000 136.4540000  45.8270000  31.8240000 151.5110000
  45.5680000  31.0270000 151.0470000  45.5610000  32.5370000 150.9300000
  78.1730000  56.8380000 159.4610000  77.6330000  56.0510000 159.3930000
  79.0520000  56.5110000 159.6520000  34.4370000  44.3200000 163.2680000
  35.1550000  43.8230000 163.6590000  33.6460000  43.8540000 163.5410000
  43.6800000  62.8640000 158.6150000  44.0410000  62.0110000 158.8570000
  43.0200000  63.0440000 159.2850000  52.6360000  74.4210000 153.0000000
  52.2260000  75.2480000 152.7460000  52.5850000  74.4120000 153.9560000
  85.4120000  45.7710000 125.7410000  84.4560000  45.7720000 125.7030000
  85.6450000  46.6670000 125.9860000  54.7720000  36.7800000 126.4890000
  54.5950000  37.2730000 127.2900000  53.9640000  36.2930000 126.3230000
  31.7460000  87.8020000 151.8530000  31.0000000  87.2260000 152.0200000
  32.5010000  87.2140000 151.8230000  72.1190000  49.5480000 158.6030000
  72.8960000  50.0510000 158.8470000  71.6260000  50.1320000 158.0260000
  48.4740000  53.8230000 158.2950000  49.3760000  53.9570000 158.5830000
  48.0900000  54.7010000 158.2920000  79.1330000  31.0180000 132.0020000
  80.0350000  31.0000000 131.6830000  78.8070000  31.8830000 131.7540000
  42.3860000  35.3790000 123.5050000  42.6890000  34.4710000 123.5000000
  41.4300000  35.3130000 123.5040000  49.5590000  69.0850000 160.9190000
  49.0620000  68.4800000 161.4700000  48.9750000  69.2770000 160.1850000
  71.9460000  62.4390000 146.2940000  71.3850000  62.0570000 146.9680000
  71.6600000  63.3510000 146.2320000  65.3570000  43.6170000 129.6990000
  65.3710000  43.9530000 130.5950000  66.0460000  44.1070000 129.2490000
  46.2570000  63.4220000 143.6040000  46.7700000  62.6320000 143.7730000
  45.3470000  63.1460000 143.7170000  60.9650000  69.5160000 125.7230000
  60.0720000  69.3910000 125.4020000  61.3080000  68.6290000 125.8290000
  73.0900000  61.0530000 133.8320000  73.1030000  61.1890000 132.8850000
  73.2990000  60.1250000 133.9440000  49.6410000  59.3980000 149.0070000
  50.1200000  60.1750000 148.7180000  50.1700000  59.0410000 149.7200000
  51.0210000  51.5230000 151.0740000  51.2250000  52.4200000 151.3380000
  50.2830000  51.2710000 151.6290000  62.7790000  52.4380000 153.1760000
  62.7730000  51.5800000 153.5990000  62.7420000  53.0630000 153.9010000
  37.0820000  82.6820000 163.6310000  36.2690000  82.3230000 163.9860000
  37.5710000  81.9160000 163.3290000  36.9200000  63.9670000 159.0140000
  37.2950000  63.2560000 159.5340000  37.6740000  64.4910000 158.7450000
  84.7600000  67.5320000 153.8140000  84.6950000  68.4140000 154.1790000
  85.5630000  67.5470000 153.2920000  41.9430000  45.6460000 126.1170000
  41.5980000  46.4100000 125.6540000  42.1310000  45.9650000 127.0000000
  51.0640000  38.7110000 123.5020000  51.8190000  39.2990000 123.5000000
  50.3050000  39.2950000 123.5280000  54.1140000  36.2120000 157.3410000
  53.6010000  36.6380000 158.0270000  55.0240000  36.4090000 157.5640000
  32.2020000  33.7000000 156.3280000  32.6110000  33.5460000 155.4770000
  31.2800000  33.8620000 156.1260000  70.6320000  65.5990000 140.2050000
  70.3650000  65.8200000 139.3130000  71.5510000  65.3450000 140.1240000
  62.3440000  48.0270000 163.5680000  63.2830000  48.1800000 163.4650000
  62.2500000  47.0750000 163.5280000  49.1270000  75.6260000 134.0650000
  49.1520000  74.7730000 133.6320000  48.6900000  76.2020000 133.4370000
  36.8590000  76.5560000 162.8000000  36.9650000  76.2850000 163.7110000
  37.7540000  76.6720000 162.4780000  82.5950000  60.1810000 151.1880000
  83.0540000  59.3510000 151.3200000  81.7020000  60.0120000 151.4890000
  75.8260000  86.5100000 127.1170000  74.9800000  86.1600000 127.3950000
  75.8030000  86.4640000 126.1610000  52.0000000  31.2450000 158.8660000
  51.8330000  32.1500000 159.1260000  52.9150000  31.2410000 158.5830000
  53.1430000  39.4350000 149.6330000  53.8040000  39.9660000 149.1890000
  53.3540000  39.5180000 150.5630000  88.4010000  53.3350000 158.0060000
  89.0000000  54.0560000 157.8110000  88.9570000  52.6600000 158.3960000
  44.7420000  81.9540000 127.8590000  43.9900000  82.4960000 127.6190000
  44.3810000  81.0730000 127.9580000  39.3610000  82.4180000 136.1430000
  38.8150000  81.6630000 135.9210000  40.2220000  82.0440000 136.3320000
  38.7930000  51.6100000 130.5490000  38.5370000  50.8030000 130.9940000
  39.5320000  51.3550000 129.9960000  76.9890000  40.7340000 161.8590000
  77.2340000  39.8410000 162.1010000  76.0500000  40.6850000 161.6760000
  46.4210000  31.1800000 148.6970000  45.8330000  31.0000000 147.9630000
  46.5530000  32.1280000 148.6720000  56.5440000  76.2130000 157.8110000
  56.2090000  75.3190000 157.8850000  57.1700000  76.2950000 158.5320000
  82.2760000  60.3980000 148.6660000  81.4170000  60.8150000 148.7200000
  82.8320000  61.0480000 148.2340000  86.9420000  52.8960000 134.9700000
  86.8290000  52.8260000 135.9180000  86.4520000  53.6820000 134.7280000
  76.7910000  48.7380000 144.4080000  77.3160000  49.3370000 143.8760000
  75.8850000  48.9860000 144.2240000  46.0210000  54.2610000 129.5570000
  46.0710000  55.1690000 129.2580000  46.6880000  54.1960000 130.2410000
  44.4960000  88.9140000 153.6320000  44.6550000  87.9710000 153.5860000
  43.5450000  89.0000000 153.5530000  42.6150000  83.1270000 140.0520000
  43.1770000  82.5090000 140.5190000  42.9310000  83.9890000 140.3210000
  71.1840000  33.7040000 158.4790000  71.6130000  34.5030000 158.1730000
  71.0620000  33.1800000 157.6870000  85.7910000  71.0000000 156.3340000
  86.6820000  71.2120000 156.0570000  85.3920000  71.8490000 156.5280000
  66.4570000  51.1680000 141.0410000  66.2290000  50.2550000 141.2180000
  67.3820000  51.1410000 140.7960000  53.6470000  87.9770000 135.0600000
  52.9570000  88.6380000 135.0100000  53.2570000  87.2590000 135.5590000
  71.3720000  67.1290000 144.6230000  71.5700000  68.0610000 144.7190000
  71.8700000  66.7050000 145.3220000  42.9530000  67.6070000 138.2170000
  42.6540000  68.1260000 137.4700000  42.8310000  66.6980000 137.9400000
  75.5500000  64.6310000 125.9860000  75.7930000  64.0580000 126.7120000
  75.0280000  65.3240000 126.3910000  46.1140000  40.8500000 145.3200000
  45.4160000  41.4920000 145.4460000  46.9120000  41.3730000 145.2420000
  51.8680000  64.4370000 125.8000000  52.0260000  64.0740000 126.6710000
  52.5910000  65.0480000 125.6600000  57.9980000  54.6040000 139.9030000
  57.5120000  54.7610000 140.7130000  58.9110000  54.7710000 140.1360000
  43.3090000  41.0840000 152.4540000  42.4350000  41.4730000 152.4410000
  43.9050000  41.8340000 152.4570000  72.2340000  51.2690000 146.3100000
  71.5700000  51.1640000 146.9920000  72.2600000  52.2110000 146.1420000
  81.0720000  84.3870000 164.0000000  80.2100000  83.9760000 163.9340000
  81.6900000  83.6580000 163.9420000  74.2250000  89.0000000 151.8500000
  74.5750000  89.0000000 150.9590000  73.2890000  88.8310000 151.7400000
  52.0550000  67.5010000 156.0700000  51.1060000  67.4220000 155.9770000
  52.2050000  68.4360000 156.2110000  66.4650000  78.8700000 159.7490000
  67.1670000  79.0970000 159.1390000  65.6700000  78.8870000 159.2160000
  48.3120000  40.6400000 139.7050000  47.8430000  40.4180000 140.5090000
  49.2040000  40.8360000 139.9920000  58.7960000  39.8810000 152.0860000
  58.6190000  39.3800000 151.2890000  59.4130000  40.5590000 151.8100000
  59.8410000  42.4300000 161.2780000  60.7690000  42.6590000 161.2530000
  59.3850000  43.2720000 161.2730000  78.6260000  59.7070000 127.5070000
  79.2090000  60.4580000 127.3970000  78.9600000  59.0510000 126.8950000
  86.6920000  54.0670000 128.7460000  86.4030000  54.9250000 129.0560000
  86.0950000  53.4460000 129.1640000  79.3240000  36.1220000 146.7400000
  80.1180000  36.5960000 146.4950000  78.6310000  36.5290000 146.2190000
  77.4300000  83.2360000 139.9370000  76.8760000  82.7170000 139.3540000
  78.3240000  83.0320000 139.6650000  48.2780000  57.6490000 158.1650000
  47.7250000  58.3770000 157.8860000  48.4270000  57.1400000 157.3680000
  50.9000000  57.0130000 134.0360000  51.1090000  57.3550000 133.1670000
  50.1490000  56.4360000 133.8930000  70.7750000  37.6950000 159.8790000
  71.6880000  37.4140000 159.8260000  70.8160000  38.5770000 160.2480000
  39.5300000  71.7420000 160.0080000  39.3250000  70.8080000 159.9580000
  40.3560000  71.7810000 160.4900000  58.0650000  61.6990000 133.0820000
  58.0100000  62.6000000 132.7660000  58.0210000  61.1630000 132.2890000
  46.7890000  88.4710000 161.1950000  46.0750000  89.0000000 161.5490000
  47.1510000  89.0000000 160.4840000  59.7690000  66.8130000 149.9770000
  59.1480000  66.0970000 149.8490000  59.2200000  67.5790000 150.1470000
  88.1720000  62.0100000 125.9110000  88.4300000  61.0920000 125.8400000
  89.0000000  62.4900000 125.9510000  54.0590000  56.7570000 128.7000000
  54.7930000  57.0890000 129.2170000  54.4470000  56.5140000 127.8600000
  41.1440000  63.5290000 156.2720000  41.7070000  63.3570000 155.5180000
  41.6200000  64.1860000 156.7820000  78.8740000  33.7440000 130.0860000
  79.7580000  33.7890000 129.7210000  78.3990000  34.4510000 129.6490000
  71.9100000  52.4000000 161.4160000  71.4190000  51.5800000 161.4730000
  71.6320000  52.7890000 160.5860000  75.9340000  74.2880000 154.9040000
  75.4200000  74.2890000 155.7110000  75.7760000  73.4260000 154.5190000
  72.8880000  74.8860000 156.1530000  73.0620000  74.9970000 155.2190000
  73.4210000  75.5590000 156.5780000  59.4340000  64.3150000 128.8870000
  59.2240000  64.7950000 128.0870000  60.3690000  64.4680000 129.0220000
  56.3350000  47.1200000 123.5000000  55.7870000  46.3450000 123.6220000
  57.2320000  46.7990000 123.5980000  56.3350000  47.3440000 134.5030000
  56.2280000  46.5160000 134.9700000  55.5350000  47.8340000 134.6960000
  73.0470000  44.2280000 133.6350000  72.4080000  43.9550000 134.2930000
  73.8580000  44.3600000 134.1280000  56.3470000  76.8190000 126.6030000
  56.6920000  77.0100000 127.4740000  56.9820000  77.2100000 126.0020000
  81.0020000  40.9960000 143.7390000  81.9100000  41.2810000 143.8450000
  80.4950000  41.6040000 144.2760000  63.9560000  38.3830000 131.6990000
  64.4240000  39.0070000 131.1450000  63.0680000  38.7370000 131.7630000
  64.6030000  47.7940000 136.2400000  65.3970000  48.1140000 136.6680000
  64.0300000  48.5590000 136.1960000  71.6570000  53.0240000 134.1280000
  71.3990000  52.4050000 133.4450000  70.9900000  53.7090000 134.0960000
  36.6610000  61.7840000 149.5560000  37.1510000  62.6030000 149.6300000
  36.2370000  61.8360000 148.6990000  62.7840000  45.7890000 161.4500000
  63.5020000  46.4200000 161.4620000  63.1910000  44.9670000 161.1750000
  60.9950000  63.2670000 126.0380000  61.9170000  63.4250000 126.2410000
  60.6440000  62.8520000 126.8260000  70.2650000  52.5640000 143.9740000
  69.9030000  52.4740000 143.0930000  70.4080000  51.6630000 144.2670000
  69.7730000  64.7990000 128.0320000  70.6330000  65.2200000 128.0050000
  69.1520000  65.5260000 128.0830000  41.4080000  83.7760000 131.1430000
  40.4850000  84.0310000 131.1280000  41.8860000  84.6020000 131.0650000
  66.9260000  67.6330000 151.6120000  67.6850000  67.4000000 151.0790000
  67.0670000  68.5520000 151.8420000  40.7000000  52.4730000 163.4160000
  41.3680000  52.1140000 163.9990000  40.0830000  52.9150000 164.0000000
  75.3590000  47.1310000 160.0480000  75.9530000  47.6310000 159.4890000
  75.0920000  47.7500000 160.7280000  88.1010000  54.5950000 155.5410000
  88.9990000  54.4680000 155.2360000  87.5630000  54.1250000 154.9030000
  84.8430000  63.7390000 152.8540000  85.4830000  63.0880000 153.1440000
  84.0190000  63.2550000 152.7940000  83.9010000  38.1720000 147.0880000
  84.1300000  38.8710000 147.7010000  83.9060000  38.5950000 146.2290000
  61.4260000  43.8900000 124.4100000  61.8680000  44.6050000 124.8670000
  61.3730000  44.1830000 123.5000000  60.6010000  33.2770000 147.9450000
  60.0240000  32.7660000 148.5120000  61.4170000  33.3540000 148.4400000
  47.8010000  41.0630000 123.5600000  47.5890000  41.9940000 123.5010000
  48.0000000  40.9210000 124.4860000  78.0870000  63.9720000 153.9320000
  77.2080000  63.6920000 153.6780000  78.1980000  64.8260000 153.5130000
  35.0270000  79.4550000 162.5080000  34.2170000  79.1670000 162.9280000
  35.0670000  80.3960000 162.6830000  39.8930000  44.2550000 154.2360000
  40.3060000  45.1180000 154.2430000  38.9530000  44.4380000 154.2160000
  82.3860000  75.0030000 129.8210000  82.9840000  75.0990000 129.0810000
  82.4160000  74.0700000 130.0350000  36.4660000  88.1730000 161.4820000
  35.8000000  87.4990000 161.3420000  35.9950000  89.0000000 161.3770000
  42.0030000  84.4810000 146.2450000  42.3510000  84.9670000 145.4980000
  42.7780000  84.2120000 146.7390000  78.6450000  44.3240000 153.7860000
  79.1860000  45.0720000 153.5340000  77.7740000  44.6960000 153.9300000
  79.8200000  84.0500000 156.0450000  80.7270000  83.7440000 156.0570000
  79.6400000  84.3040000 156.9500000  48.8050000  37.5290000 136.4780000
  48.1170000  36.8990000 136.2630000  48.8080000  37.5640000 137.4350000
  50.8040000  65.1360000 137.5190000  50.4440000  65.8580000 137.0040000
  50.0680000  64.5360000 137.6390000  58.5220000  44.1760000 133.4000000
  58.8620000  43.3220000 133.1330000  58.7560000  44.2480000 134.3260000
  63.3080000  43.4410000 142.2980000  64.1570000  43.2390000 141.9040000
  63.0350000  42.6210000 142.7110000  87.3170000  42.2730000 162.1350000
  87.5830000  41.9450000 162.9930000  86.6400000  41.6610000 161.8430000
  61.3790000  69.6670000 132.5200000  61.3330000  68.7400000 132.2870000
  60.6030000  70.0550000 132.1140000  65.3740000  50.3540000 157.0820000
  65.6200000  50.0720000 157.9620000  65.3270000  49.5440000 156.5740000
  33.4150000  79.4190000 159.7100000  34.1180000  79.0330000 159.1880000
  33.4640000  78.9650000 160.5520000  33.8150000  39.6890000 131.0420000
  33.2080000  39.4890000 130.3300000  33.3330000  40.2990000 131.6030000
  85.6430000  51.4120000 163.3840000  86.5560000  51.2710000 163.1330000
  85.4510000  50.7050000 164.0000000  65.6250000  64.1860000 127.3640000
  66.3990000  64.7480000 127.3440000  65.9030000  63.3780000 126.9310000
  84.3600000  33.0730000 161.6300000  84.0690000  33.8030000 162.1760000
  85.3160000  33.0960000 161.6870000  36.9580000  50.0800000 161.5150000
  37.5300000  50.6160000 162.0640000  37.3970000  50.0530000 160.6640000
  44.7420000  76.1500000 123.7960000  43.8650000  75.9250000 124.1060000
  45.2630000  76.2400000 124.5940000  33.4370000  41.0330000 134.3090000
  33.1260000  41.1550000 135.2060000  33.1820000  41.8370000 133.8550000
  50.4010000  45.5630000 130.6920000  49.9130000  44.9720000 130.1190000
  49.7400000  45.9240000 131.2830000  74.8350000  53.9010000 134.4530000
  75.3990000  54.6740000 134.4400000  75.4420000  53.1610000 134.4300000
  41.4460000  43.4330000 133.5050000  41.4130000  44.1660000 134.1190000
  41.3570000  43.8390000 132.6420000  54.2760000  88.5460000 154.2220000
  53.5580000  89.0000000 154.6640000  54.6150000  87.9380000 154.8800000
  33.5450000  38.0310000 127.3420000  33.3140000  38.8760000 127.7260000
  33.0700000  38.0070000 126.5110000  63.0130000  61.9370000 133.9830000
  62.2030000  62.1440000 133.5170000  63.4440000  61.2800000 133.4370000
  60.9610000  64.5240000 137.2160000  60.6500000  65.4170000 137.0680000
  60.1640000  63.9940000 137.2420000  38.8030000  46.1790000 163.8920000
  37.9960000  46.6930000 163.8720000  39.4990000  46.8280000 164.0000000
  68.0440000  70.1430000 157.3600000  67.4820000  70.4320000 156.6420000
  68.8790000  69.9330000 156.9420000  37.4310000  83.9410000 123.5020000
  36.4740000  83.9240000 123.5000000  37.6550000  84.8710000 123.5200000
  53.4130000  31.0710000 155.9100000  54.2050000  31.0750000 156.4480000
  53.7210000  31.2830000 155.0280000  45.4770000  74.8600000 145.0510000
  46.1650000  74.1950000 145.0120000  45.5760000  75.3540000 144.2370000
  65.5460000  88.1860000 163.6070000  65.7140000  88.0940000 162.6690000
  66.4150000  88.2650000 164.0000000  83.3290000  79.7200000 164.0000000
  83.6580000  80.6170000 163.9570000  83.2230000  79.4590000 163.0850000
  86.4170000  76.7710000 139.7370000  86.5360000  77.7210000 139.7360000
  86.1060000  76.5690000 140.6200000  69.2330000  34.3080000 145.4820000
  69.0180000  33.7790000 146.2500000  69.1600000  35.2130000 145.7860000
  54.7460000  73.5200000 135.3080000  54.9490000  72.5950000 135.4480000
  55.5960000  73.9320000 135.1520000  63.8190000  86.1340000 159.0710000
  63.1320000  85.4690000 159.1130000  64.3960000  85.9300000 159.8070000
  45.1160000  58.4390000 129.8790000  44.9980000  58.8360000 129.0160000
  44.9580000  57.5060000 129.7380000  83.4080000  65.7910000 159.1040000
  83.7450000  66.5370000 159.5990000  83.4250000  66.0810000 158.1910000
  80.5060000  46.4730000 144.3930000  80.7880000  47.3630000 144.1810000
  80.0790000  46.5540000 145.2460000  46.2570000  40.3100000 157.9060000
  45.6590000  41.0170000 158.1490000  45.6940000  39.6450000 157.5100000
  45.4930000  43.9170000 144.8400000  45.1300000  44.3440000 144.0640000
  46.4120000  43.7640000 144.6220000  89.0000000  82.3000000 159.6060000
  88.7290000  81.6400000 158.9680000  88.9880000  81.8390000 160.4460000
  47.7090000  44.9860000 163.5850000  48.2770000  44.2230000 163.6880000
  47.0990000  44.7390000 162.8890000  83.7680000  49.8260000 141.1980000
  84.2490000  50.1740000 140.4480000  84.1980000  48.9930000 141.3940000
  70.5980000  69.0760000 161.9080000  71.5100000  69.2280000 161.6620000
  70.4260000  68.1710000 161.6460000  74.7970000  77.3190000 161.2830000
  75.7170000  77.4270000 161.5240000  74.7900000  76.5640000 160.6940000
  35.5980000  79.9730000 151.0420000  35.8350000  79.0480000 151.1120000
  36.4370000  80.4350000 151.0300000  74.1540000  43.1910000 159.0390000
  74.6460000  42.5340000 158.5470000  73.2390000  43.0300000 158.8060000
  32.9960000  59.0340000 143.6220000  33.2350000  58.1810000 143.9840000
  32.6420000  58.8360000 142.7540000  31.5880000  67.2080000 154.4120000
  31.0080000  66.4640000 154.2550000  31.0000000  67.9240000 154.6520000
  39.2810000  50.5770000 145.9460000  39.5500000  50.1830000 145.1160000
  39.0400000  49.8320000 146.4980000  87.5200000  53.5660000 146.0150000
  86.9980000  54.3390000 145.8000000  87.0380000  52.8350000 145.6260000
  37.1080000  47.1570000 132.2510000  37.6400000  46.6600000 131.6310000
  36.2100000  46.8740000 132.0770000  47.4170000  60.7920000 145.3390000
  47.6440000  60.1890000 146.0460000  46.5870000  60.4590000 144.9970000
  54.7760000  32.9710000 147.5040000  54.9780000  32.4560000 148.2850000
  53.9920000  32.5580000 147.1410000  35.1090000  77.0940000 160.7640000
  35.7280000  76.3900000 160.5760000  34.4950000  76.7130000 161.3920000
  36.1930000  74.3490000 143.6610000  37.0720000  74.7260000 143.6280000
  36.3380000  73.4030000 143.6650000  88.0870000  44.9160000 150.7760000
  89.0000000  45.0810000 151.0100000  88.1020000  44.0650000 150.3370000
  89.0000000  79.0040000 147.4410000  88.1600000  78.5500000 147.3780000
  88.7720000  79.9340000 147.4220000  39.8950000  65.1210000 125.9980000
  40.6310000  64.8000000 125.4770000  40.0760000  66.0540000 126.1200000
  85.9640000  33.6100000 158.0090000  86.3640000  33.1410000 157.2770000
  85.0540000  33.3120000 158.0160000  51.8120000  69.8750000 125.8910000
  52.5930000  70.4010000 125.7220000  51.1480000  70.5100000 126.1610000
  43.9680000  48.9540000 163.7410000  43.1020000  49.2700000 164.0000000
  44.5640000  49.6630000 163.9820000  86.7170000  81.7130000 161.7430000
  86.7520000  80.7760000 161.5530000  85.8220000  81.8620000 162.0510000
  49.5010000  88.4530000 133.7700000  50.3170000  88.9120000 133.5730000
  48.8180000  89.0000000 133.3810000  62.6100000  86.5400000 156.6900000
  63.0850000  86.5460000 155.8590000  62.0980000  85.7310000 156.6680000
  53.7060000  89.0000000 163.6490000  52.8190000  88.7590000 163.9170000
  54.2610000  88.3030000 164.0000000  46.8600000  65.0230000 146.0220000
  46.7350000  65.6970000 146.6890000  46.5860000  65.4400000 145.2050000
  43.8610000  72.7110000 146.9340000  44.6200000  72.1290000 146.9270000
  43.1070000  72.1230000 146.8940000  44.1110000  76.7360000 164.0000000
  43.4950000  77.4560000 163.8710000  44.9750000  77.1480000 163.9530000
  86.3020000  70.5050000 134.0720000  85.3850000  70.3720000 133.8330000
  86.3890000  71.4540000 134.1670000  42.7100000  74.2810000 150.0780000
  43.5740000  74.5540000 150.3880000  42.1860000  75.0820000 150.0920000
  81.1760000  53.2550000 134.5430000  81.5950000  52.5170000 134.9850000
  80.2500000  53.0140000 134.5000000  66.9540000  62.7790000 137.6910000
  66.3210000  63.4970000 137.7240000  67.8030000  63.2110000 137.5950000
  64.9490000  40.2950000 144.5050000  64.5780000  39.5370000 144.0540000
  64.2660000  40.9650000 144.4490000  76.2400000  81.5770000 131.1310000
  76.7480000  81.8940000 130.3850000  75.8020000  82.3570000 131.4720000
  50.9840000  31.0470000 129.5170000  50.9650000  31.9120000 129.1090000
  50.1700000  31.0000000 130.0180000  74.9260000  35.3230000 158.4650000
  75.5730000  34.9780000 157.8510000  74.0910000  35.2430000 158.0050000
  38.4630000  35.3350000 159.7820000  39.3270000  35.4170000 159.3780000
  38.1380000  34.4860000 159.4830000  89.0000000  35.9360000 146.7420000
  89.0000000  36.0570000 145.7930000  89.0000000  36.8250000 147.0970000
  37.9610000  31.8400000 146.6140000  37.2870000  32.4790000 146.3810000
  37.5010000  31.0000000 146.6260000  76.0270000  60.1280000 147.6200000
  76.4560000  59.4290000 148.1140000  75.4780000  59.6690000 146.9840000
  48.4630000  43.3240000 143.1380000  49.3710000  43.2190000 142.8540000
  48.1800000  42.4390000 143.3690000  33.1910000  76.0640000 156.3090000
  33.5430000  76.9530000 156.3530000  33.8350000  75.5770000 155.7930000
  88.9170000  72.9640000 128.6670000  88.9980000  72.0530000 128.9500000
  89.0000000  73.4730000 129.4740000  86.7610000  80.6040000 133.0330000
  87.4660000  80.4600000 133.6650000  86.6710000  81.5560000 132.9870000
  85.9790000  40.0950000 151.3810000  86.9260000  40.1510000 151.5080000
  85.8020000  39.1580000 151.3000000  68.0960000  55.3250000 133.6880000
  68.3110000  54.4460000 133.9990000  68.9370000  55.7800000 133.6550000
  59.5630000  57.0580000 156.9810000  59.1630000  56.1900000 156.9440000
  58.8300000  57.6650000 156.8820000  59.5650000  88.4020000 134.1170000
  60.3120000  89.0000000 134.1290000  59.9570000  87.5290000 134.0970000
  64.2870000  77.3270000 129.1360000  63.9720000  76.4300000 129.2490000
  65.2380000  77.2400000 129.0700000  63.6550000  80.3630000 130.0710000
  63.0270000  79.6630000 130.2470000  64.4090000  79.9170000 129.6850000
  67.2350000  53.0200000 138.7510000  67.8890000  52.3320000 138.6330000
  66.4270000  52.5500000 138.9590000  35.7800000  66.9780000 157.7560000
  36.5280000  67.4760000 157.4280000  36.1390000  66.4440000 158.4660000
  31.4100000  84.1490000 128.3950000  31.0070000  83.7650000 129.1740000
  31.0000000  85.0100000 128.3120000  73.9630000  56.4880000 136.9160000
  74.1600000  55.6080000 137.2360000  73.4180000  56.8760000 137.6010000
  36.1050000  42.2320000 132.5660000  35.4950000  42.9260000 132.8170000
  35.6930000  41.4260000 132.8790000  50.9450000  47.8500000 157.6300000
  50.9690000  46.8950000 157.5710000  50.5370000  48.1300000 156.8100000
  43.0100000  31.1190000 152.6000000  42.2100000  31.0000000 153.1110000
  43.7190000  31.0000000 153.2330000  62.0790000  65.9880000 143.4580000
  61.7090000  65.7620000 142.6050000  62.9730000  65.6470000 143.4300000
  33.3670000  56.9380000 156.4370000  33.4820000  57.8450000 156.7200000
  32.5190000  56.6790000 156.7990000  88.8340000  68.2330000 125.2550000
  88.9930000  67.8050000 126.0960000  89.0000000  67.5500000 124.6040000
  70.0830000  60.9030000 144.2450000  70.0590000  61.0580000 143.3010000
  70.2060000  61.7720000 144.6280000  48.2310000  80.4560000 157.0510000
  47.8460000  81.1930000 157.5250000  47.9740000  80.5980000 156.1390000
  31.0130000  47.2090000 149.3330000  31.0320000  46.2820000 149.0950000
  31.0000000  47.6710000 148.4940000  82.3350000  52.2830000 147.9510000
  81.5490000  52.7180000 147.6220000  82.3070000  51.4090000 147.5620000
  86.2390000  81.6600000 153.6490000  86.1130000  81.3040000 154.5280000
  86.4320000  80.8940000 153.1060000  61.9720000  69.3710000 146.3290000
  62.8150000  69.3960000 146.7820000  61.3390000  69.6670000 146.9840000
  31.3020000  65.5730000 145.8150000  32.1310000  65.1840000 145.5360000
  31.0000000  65.0080000 146.5270000  55.1140000  72.0940000 153.2600000
  54.3670000  72.0990000 152.6610000  55.3600000  71.1710000 153.3280000
  79.1300000  34.3510000 123.9940000  78.4550000  34.8170000 123.5020000
  79.9360000  34.5050000 123.5000000  41.4940000  70.2700000 146.3110000
  40.9840000  70.9050000 145.8090000  40.9580000  70.0870000 147.0830000
  33.5490000  42.0090000 158.6550000  33.2970000  41.1150000 158.4250000
  33.1010000  42.1790000 159.4840000  73.3610000  88.1760000 141.6880000
  72.8740000  89.0000000 141.6650000  73.5800000  88.0530000 142.6120000
  66.7620000  54.8080000 163.5020000  66.2220000  54.5350000 162.7600000
  67.6540000  54.5690000 163.2500000  75.9060000  78.4430000 140.8400000
  75.6520000  79.3650000 140.8830000  75.2000000  77.9790000 141.2900000
  75.7590000  55.7910000 142.4540000  75.9130000  56.2290000 143.2900000
  76.0350000  56.4280000 141.7940000  31.5490000  77.8310000 128.1430000
  31.0000000  77.4790000 127.4420000  32.2900000  77.2250000 128.1940000
  31.8820000  74.7170000 153.9190000  31.0000000  75.0500000 154.0870000
  32.1450000  75.1380000 153.1000000  45.5590000  47.9410000 157.3870000
  44.6260000  47.8880000 157.1820000  45.6800000  48.8280000 157.7280000
  46.3320000  71.2880000 161.0070000  46.7860000  71.2010000 160.1690000
  46.9060000  70.8550000 161.6380000  42.8170000  63.3040000 125.5340000
  43.0600000  64.2260000 125.6120000  43.4630000  62.8390000 126.0660000
  88.0930000  51.1640000 127.5110000  87.5810000  51.8060000 128.0020000
  89.0000000  51.3310000 127.7680000  63.2840000  69.8960000 138.2220000
  63.7790000  70.5820000 138.6680000  62.6880000  69.5570000 138.8900000
  56.1160000  31.7350000 132.1730000  56.4650000  32.5120000 131.7350000
  56.4460000  31.0000000 131.6560000  56.1670000  43.6490000 134.0970000
  55.6410000  42.8920000 133.8390000  56.3510000  43.5080000 135.0260000
  42.7300000  78.4560000 134.8030000  42.6840000  79.3450000 135.1550000
  42.8290000  78.5780000 133.8580000  50.5630000  48.4050000 123.5020000
  51.4950000  48.1890000 123.5310000  50.1190000  47.5570000 123.5190000
  54.8750000  67.2860000 163.3020000  55.4950000  66.8130000 162.7480000
  54.6560000  66.6680000 164.0000000  46.5680000  88.9510000 135.4420000
  47.2130000  88.3000000 135.1660000  46.6680000  89.0000000 136.3930000
  38.0410000  44.4720000 136.2510000  38.8680000  44.1210000 136.5790000
  37.4390000  44.4010000 136.9930000  39.0170000  85.7830000 138.3380000
  38.0720000  85.6640000 138.2450000  39.1430000  86.7320000 138.3160000
  79.6770000  46.0120000 129.6050000  79.6490000  46.9690000 129.6010000
  78.7590000  45.7450000 129.5420000  60.9340000  86.1670000 131.9400000
  61.5800000  86.3200000 132.6290000  61.1520000  85.3010000 131.5940000
  75.8560000  76.2300000 152.2860000  74.9220000  76.1740000 152.4870000
  76.0670000  75.3850000 151.8870000  43.0840000  46.7650000 133.1880000
  42.9030000  46.1690000 133.9140000  42.8730000  46.2590000 132.4030000
  41.0240000  48.4820000 138.8110000  40.6160000  48.4300000 139.6750000
  40.5200000  49.1510000 138.3470000  34.6220000  41.2400000 149.2350000
  34.7530000  42.0040000 149.7950000  33.9720000  40.7110000 149.6980000
  62.5060000  78.2410000 163.9490000  61.9240000  78.9990000 164.0000000
  61.9200000  77.4970000 163.8080000  41.8990000  59.2250000 143.8180000
  41.9580000  58.2700000 143.8200000  40.9590000  59.4070000 143.8180000
  33.6440000  50.0520000 153.2630000  34.5400000  50.0290000 152.9260000
  33.1460000  49.4990000 152.6590000  51.1490000  42.1040000 147.1120000
  51.1520000  41.2650000 147.5720000  52.0740000  42.3420000 147.0380000
  51.9290000  53.9770000 133.4330000  52.0180000  54.7560000 133.9820000
  52.0180000  53.2440000 134.0420000  66.7680000  53.0530000 153.4500000
  66.5760000  53.6710000 152.7450000  66.4690000  53.4960000 154.2450000
  58.2340000  36.5480000 151.2740000  58.8970000  36.0830000 151.7850000
  57.4210000  36.4210000 151.7640000  54.9870000  87.9790000 129.7880000
  54.9120000  88.8950000 129.5200000  54.3880000  87.5100000 129.2080000
  88.8850000  60.5290000 132.9720000  89.0000000  59.5910000 133.1220000
  89.0000000  60.6370000 132.0280000  71.1200000  39.6480000 131.1200000
  70.2630000  40.0710000 131.1780000  70.9710000  38.8770000 130.5730000
  55.8960000  47.9270000 144.9960000  56.5150000  47.2850000 145.3440000
  56.3590000  48.3340000 144.2640000  50.0210000  35.2170000 126.8720000
  49.1030000  35.3420000 127.1150000  50.0330000  34.3810000 126.4050000
  66.0010000  44.1090000 133.1550000  65.1230000  43.7300000 133.1660000
  66.5890000  43.3540000 133.2100000  32.5940000  80.7020000 146.6090000
  31.9390000  81.3590000 146.8450000  33.4020000  81.2020000 146.4900000
  61.8750000  78.6030000 127.8980000  62.7910000  78.7580000 127.6720000
  61.8740000  77.7440000 128.3210000  84.3270000  61.1250000 127.1220000
  85.2710000  60.9840000 127.0510000  84.2320000  62.0740000 127.2010000
  63.1240000  36.7230000 135.0370000  62.7930000  37.6190000 134.9940000
  62.3420000  36.1830000 135.1540000  83.2520000  66.4490000 137.6310000
  83.9400000  65.8100000 137.4480000  83.2600000  66.5440000 138.5840000
  67.5830000  50.3600000 129.1030000  66.7140000  50.7600000 129.1170000
  68.1890000  51.1000000 129.1490000  80.3190000  51.3180000 144.9960000
  81.1370000  51.8130000 145.0550000  79.6770000  51.9530000 144.6760000
  52.0230000  78.0820000 160.8380000  52.3940000  77.2000000 160.8270000
  51.0750000  77.9430000 160.8520000  80.0860000  49.8560000 124.7450000
  80.2070000  49.9360000 123.7990000  80.9560000  49.6430000 125.0820000
  76.5950000  61.5020000 127.8680000  76.4740000  60.6750000 128.3330000
  75.7500000  61.6700000 127.4510000  34.0270000  31.9270000 132.9860000
  34.0550000  31.0000000 133.2220000  33.8280000  32.3780000 133.8070000
  68.2800000  59.0480000 141.6330000  68.2350000  58.0960000 141.7100000
  69.0600000  59.2090000 141.1020000  41.7450000  75.2340000 125.9420000
  41.6950000  74.2780000 125.9580000  40.8400000  75.5240000 126.0610000
  70.4350000  81.2210000 128.2680000  71.3780000  81.2180000 128.4310000
  70.0700000  80.6650000 128.9570000  87.5150000  72.8820000 137.5720000
  87.9010000  73.7570000 137.5850000  88.2110000  72.3080000 137.8960000
  59.7750000  76.0760000 132.7900000  59.1140000  75.6860000 132.2180000
  59.5850000  77.0140000 132.7710000  35.4100000  64.9670000 128.3610000
  35.7530000  65.7540000 127.9390000  34.5280000  64.8670000 128.0000000
  83.7860000  51.4900000 125.5320000  83.7010000  52.0240000 124.7420000
  83.2490000  50.7170000 125.3570000  67.6980000  35.4140000 163.9980000
  67.7140000  36.3710000 163.9850000  68.6210000  35.1590000 164.0000000
  61.0380000  54.3960000 156.7160000  61.9190000  54.2560000 156.3690000
  61.1260000  54.2480000 157.6580000  32.6780000  61.6000000 126.4550000
  33.2050000  61.7710000 125.6750000  33.3170000  61.5280000 127.1650000
  41.7660000  45.5080000 143.1870000  42.0520000  44.5950000 143.2130000
  41.1410000  45.5840000 143.9080000  55.2880000  78.7050000 163.7460000
  54.8180000  77.8920000 163.5610000  55.5660000  79.0220000 162.8860000
  66.1090000  58.1220000 140.2810000  66.0960000  58.9180000 139.7490000
  65.5060000  57.5260000 139.8360000  52.3010000  48.9280000 127.0730000
  51.5360000  49.4570000 127.2970000  53.0500000  49.4900000 127.2730000
  73.9870000  85.5780000 156.0890000  73.6910000  85.7550000 155.1960000
  73.2190000  85.2130000 156.5280000  53.0340000  88.5010000 146.4170000
  52.2820000  89.0000000 146.7350000  53.3510000  89.0000000 145.6630000
  33.3530000  76.3860000 164.0000000  34.2970000  76.5170000 163.9120000
  32.9860000  77.2700000 163.9930000  66.6010000  77.9910000 144.9830000
  66.0350000  78.6790000 144.6330000  67.3820000  78.4540000 145.2870000
  72.9720000  59.7330000 148.8720000  72.2270000  60.1690000 148.4580000
  73.4900000  60.4470000 149.2450000  43.1650000  86.1130000 142.4540000
  43.2730000  86.4060000 143.3580000  43.3570000  85.1750000 142.4810000
  73.0560000  50.0980000 137.1600000  72.5590000  50.9140000 137.2170000
  73.9670000  50.3780000 137.0730000  40.0080000  75.6170000 163.9960000
  40.6700000  76.3080000 163.9900000  40.5110000  74.8030000 164.0000000
  59.8920000  86.6710000 123.8910000  59.4980000  87.4510000 123.5000000
  60.7740000  86.6370000 123.5200000  75.2000000  36.7790000 131.4590000
  74.8270000  35.9150000 131.2840000  76.1190000  36.7010000 131.2030000
  71.6620000  46.5810000 130.1650000  71.1410000  46.1740000 130.8570000
  72.0930000  47.3210000 130.5930000  67.7820000  82.8890000 153.6080000
  68.6330000  83.2450000 153.8630000  67.9780000  82.0120000 153.2780000
  31.0410000  46.7270000 157.5060000  31.0000000  46.4860000 158.4310000
  31.1410000  45.8940000 157.0450000  43.1390000  61.3070000 123.9480000
  42.8170000  60.8370000 124.7170000  43.7040000  60.6770000 123.5000000
  63.6290000  85.5810000 131.4010000  64.1500000  84.7780000 131.3820000
  64.2450000  86.2600000 131.6750000  83.3300000  53.9550000 127.7830000
  83.7460000  53.0930000 127.8140000  84.0600000  54.5730000 127.7640000
  69.4440000  57.5540000 124.1590000  68.8150000  57.8460000 123.5000000
  68.9030000  57.2480000 124.8880000  47.7810000  88.9100000 151.0860000
  48.4970000  88.9990000 151.7150000  46.9870000  89.0000000 151.6130000
  46.6490000  42.3340000 136.0790000  47.5350000  41.9710000 136.0870000
  46.7780000  43.2820000 136.0420000  54.1320000  72.1500000 129.9110000
  54.9780000  71.7120000 129.8240000  54.0840000  72.3980000 130.8350000
  49.8900000  88.7500000 131.1150000  49.8010000  87.8000000 131.1890000
  49.2610000  88.9980000 130.4370000  88.6770000  84.9950000 160.8750000
  89.0000000  84.4020000 161.5530000  88.0410000  84.4740000 160.3830000
  72.8910000  87.4670000 126.5630000  72.6400000  88.3670000 126.3550000
  73.0200000  87.0510000 125.7110000  65.1890000  34.6450000 140.3500000
  65.6950000  35.1690000 139.7300000  65.8440000  34.2800000 140.9460000
  77.7940000  80.1190000 152.6680000  77.8950000  79.3880000 152.0590000
  78.6610000  80.2280000 153.0590000  31.5880000  81.3510000 128.0930000
  31.0170000  80.7340000 128.5500000  31.0000000  81.8430000 127.5200000
  63.9860000  46.0480000 131.4790000  63.8150000  45.7000000 132.3540000
  63.2180000  45.7950000 130.9650000  52.0380000  80.2250000 164.0000000
  51.2190000  79.7300000 163.9990000  52.7230000  79.5560000 164.0000000
  40.9080000  79.4680000 123.5000000  40.1460000  79.9280000 123.8510000
  41.6170000  80.1100000 123.5460000  38.6470000  76.5460000 155.4150000
  38.4690000  76.4350000 156.3480000  39.5930000  76.6880000 155.3670000
  74.3110000  73.4680000 152.4620000  74.2880000  73.2820000 151.5240000
  73.5670000  74.0520000 152.6090000  56.5300000  37.6840000 128.8200000
  56.5890000  38.6360000 128.7340000  57.4340000  37.4000000 128.9570000
  58.4000000  31.0000000 133.5970000  58.6890000  31.0600000 134.5070000
  58.8590000  31.7130000 133.1520000  81.9130000  59.0740000 159.1700000
  80.9730000  58.8940000 159.1710000  81.9780000  60.0090000 159.3670000
  39.7760000  64.8990000 147.0820000  39.5420000  64.6400000 147.9730000
  40.1420000  64.1060000 146.6890000  72.4760000  67.0080000 138.5020000
  72.3470000  66.3520000 137.8180000  72.4680000  67.8450000 138.0370000
  88.5710000  80.8210000 155.2310000  88.1560000  80.0770000 155.6650000
  88.6190000  80.5660000 154.3090000  82.0370000  86.0710000 156.3500000
  82.3720000  86.0040000 155.4560000  81.0960000  86.2100000 156.2430000
  85.8050000  75.3990000 160.8610000  86.4260000  75.5230000 160.1440000
  86.2370000  74.7770000 161.4480000  53.1160000  75.9280000 128.1450000
  53.1600000  75.1140000 127.6430000  53.9400000  76.3750000 127.9500000
  67.7330000  71.5310000 124.0310000  68.3460000  70.8410000 123.7780000
  67.9900000  72.2860000 123.5000000  39.9760000  56.9040000 142.3260000
  39.3580000  56.2100000 142.0950000  40.7660000  56.4400000 142.6030000
  54.8110000  82.1360000 157.0050000  54.4630000  82.4670000 156.1770000
  54.6970000  82.8620000 157.6190000  47.9510000  50.5060000 152.9860000
  47.1820000  49.9450000 152.8890000  47.6100000  51.3170000 153.3650000
  56.8620000  59.2530000 127.6950000  57.5330000  58.5710000 127.6660000
  56.0340000  58.7770000 127.6210000  54.1200000  76.2560000 151.2950000
  54.5600000  75.4230000 151.4640000  54.8320000  76.8720000 151.1200000
  66.4950000  36.8170000 128.5480000  65.5570000  36.9990000 128.4930000
  66.9140000  37.6510000 128.3330000  46.8580000  63.3420000 130.1580000
  46.9150000  63.5470000 131.0910000  47.5350000  63.8830000 129.7510000
  57.9000000  73.9420000 142.3430000  57.6310000  74.7940000 142.6860000
  57.0830000  73.4540000 142.2450000  86.0830000  67.3330000 148.0020000
  86.6910000  67.1310000 148.7130000  86.5500000  67.0750000 147.2070000
  43.7380000  60.4230000 151.4180000  44.5980000  60.2470000 151.7980000
  43.2230000  59.6410000 151.6160000  81.7010000  80.7340000 130.0100000
  80.8970000  80.6460000 129.4980000  81.7130000  81.6530000 130.2810000
  68.9750000  41.2450000 137.1940000  68.7190000  40.3590000 137.4490000
  68.1570000  41.6620000 136.9220000  66.9290000  39.6240000 131.0060000
  66.8660000  38.7220000 130.6910000  67.6840000  39.6190000 131.5960000
  70.8770000  45.6360000 135.6380000  71.2550000  46.4810000 135.3940000
  70.3100000  45.8330000 136.3840000  62.9660000  38.0010000 163.2450000
  62.7700000  37.0740000 163.1120000  63.3990000  38.2730000 162.4350000
  53.4700000  63.1290000 145.1200000  53.9170000  63.6310000 145.8020000
  52.6340000  63.5810000 145.0000000  59.0720000  75.9720000 124.0410000
  59.8460000  75.8190000 123.5000000  58.3390000  75.6780000 123.5000000
  36.4290000  78.7590000 123.9380000  36.8940000  78.7870000 124.7740000
  36.3310000  77.8260000 123.7490000  41.1570000  38.8130000 135.3430000
  40.6380000  39.4320000 134.8290000  41.2860000  39.2500000 136.1850000
  55.9720000  44.5530000 130.8600000  56.1310000  44.6600000 131.7970000
  55.6920000  45.4190000 130.5640000  52.8730000  55.5510000 150.7760000
  53.5720000  55.3750000 150.1470000  52.3060000  54.7810000 150.7260000
  77.6680000  87.7410000 135.5480000  78.4640000  88.2420000 135.7270000
  77.6840000  87.5950000 134.6020000  62.9190000  63.0190000 142.7890000
  63.5550000  62.3740000 142.4800000  62.0890000  62.7450000 142.3960000
  64.1980000  34.2210000 150.2960000  64.5410000  35.1130000 150.3450000
  63.2470000  34.3300000 150.2680000  71.3780000  35.1370000 160.8100000
  72.3100000  34.9190000 160.8190000  70.9430000  34.3380000 161.1070000
  51.0020000  48.6200000 137.2450000  51.1090000  49.4830000 136.8460000
  51.7110000  48.5630000 137.8860000  72.6360000  37.5120000 132.7780000
  72.5810000  38.4670000 132.7690000  71.7250000  37.2190000 132.7740000
  71.1640000  77.3810000 154.9410000  71.5020000  76.9670000 155.7350000
  71.6480000  78.2050000 154.8750000  68.1850000  34.8920000 138.0550000
  69.0840000  34.9820000 137.7390000  67.9460000  35.7700000 138.3510000
  51.9450000  31.0000000 152.1870000  52.6580000  31.5070000 151.8000000
  52.1170000  31.0230000 153.1280000  46.6590000  40.2500000 147.9070000
  45.8110000  40.6790000 147.7960000  47.2940000  40.9660000 147.8870000
  86.7550000  61.7780000 133.3590000  85.9600000  62.3100000 133.3220000
  86.4380000  60.8800000 133.4630000  58.0160000  53.3210000 157.0740000
  57.6250000  54.1430000 156.7770000  57.4270000  52.6420000 156.7430000
  77.4100000  76.7790000 143.1080000  76.7440000  76.9060000 143.7830000
  77.8250000  77.6370000 143.0150000  68.5100000  89.0000000 128.3590000
  69.1960000  88.7910000 128.9920000  67.7480000  88.5040000 128.6590000
  70.9590000  77.5230000 143.5820000  70.8140000  77.0080000 142.7880000
  70.3270000  77.1750000 144.2120000  59.0940000  63.0260000 157.7880000
  58.6840000  63.4590000 158.5370000  58.6550000  62.1770000 157.7310000
  72.2050000  86.4610000 129.3840000  72.8270000  86.8090000 130.0230000
  72.0800000  85.5480000 129.6430000  74.9060000  45.1840000 156.4030000
  74.0920000  45.6380000 156.1870000  74.7780000  44.8760000 157.3010000
  38.3280000  63.3780000 140.5350000  38.2570000  62.4370000 140.3770000
  38.5130000  63.4500000 141.4720000  81.1420000  83.8010000 139.5570000
  80.6630000  84.6010000 139.3420000  81.9490000  83.8600000 139.0450000
  33.2070000  57.1490000 150.6720000  33.1060000  57.6080000 151.5060000
  33.4280000  57.8380000 150.0450000  46.4960000  74.0840000 124.8820000
  45.9790000  73.3470000 125.2060000  46.3460000  74.0850000 123.9360000
  80.6440000  48.1930000 137.8730000  81.1400000  48.9730000 138.1190000
  79.7780000  48.5240000 137.6340000  44.1340000  68.7440000 126.9030000
  44.3690000  69.0800000 127.7670000  44.7560000  69.1610000 126.3060000
  72.0850000  86.7030000 161.2850000  71.9030000  87.2930000 162.0160000
  71.2480000  86.2710000 161.1110000  77.9240000  85.5880000 159.0500000
  78.6770000  85.0220000 159.2160000  78.2670000  86.4770000 159.1370000
  73.5180000  45.8840000 164.0000000  72.7320000  45.3430000 163.9250000
  74.2230000  45.3330000 163.6590000  63.9930000  74.7840000 152.2040000
  63.1710000  74.9200000 152.6760000  64.5720000  74.3720000 152.8460000
  57.5290000  78.6420000 152.4010000  58.1990000  77.9590000 152.4050000
  56.6990000  78.1650000 152.3980000  70.7110000  36.2400000 127.2950000
  70.4060000  35.4160000 126.9160000  70.0830000  36.4310000 127.9930000
  63.2230000  33.3260000 162.6370000  62.4640000  33.4160000 163.2140000
  63.1300000  32.4540000 162.2530000  78.5310000  76.9240000 136.9060000
  79.1740000  77.6090000 137.0880000  79.0510000  76.1260000 136.8090000
  77.5520000  70.5870000 145.5690000  78.2660000  70.4090000 144.9560000
  77.9030000  71.2550000 146.1580000  41.7890000  59.0520000 164.0000000
  42.7090000  59.3150000 164.0000000  41.6920000  58.5200000 163.2100000
  61.5090000  40.0350000 156.3730000  62.4350000  40.2770000 156.3740000
  61.0420000  40.8720000 156.3820000  41.5310000  51.9270000 145.2350000
  42.0020000  51.0950000 145.2890000  42.2120000  52.5770000 145.0610000
  61.4710000  82.1920000 132.0210000  61.7820000  81.4980000 131.4390000
  60.6770000  81.8340000 132.4180000  55.0870000  31.3720000 134.7630000
  54.4790000  31.1690000 135.4740000  54.5590000  31.8530000 134.1250000
  40.9140000  48.8430000 156.6620000  41.1310000  49.7740000 156.6230000
  41.7570000  48.3960000 156.5860000  53.4220000  62.1530000 139.3860000
  54.1400000  62.6190000 139.8120000  52.7430000  62.8170000 139.2630000
  88.6710000  81.9170000 139.9780000  87.7410000  81.8830000 139.7550000
  89.0000000  81.0420000 139.7710000  69.9310000  74.6530000 126.6990000
  69.4330000  75.4700000 126.6640000  69.3760000  74.0560000 127.2010000
  56.2420000  46.3230000 158.1290000  56.3230000  46.9760000 158.8240000
  55.7170000  46.7550000 157.4540000  44.1940000  48.3930000 152.1580000
  44.2850000  47.9010000 152.9740000  44.9570000  48.9720000 152.1410000
  63.3040000  66.9980000 130.0650000  62.9200000  66.8160000 130.9230000
  63.6830000  66.1630000 129.7900000  50.3160000  88.8690000 153.8420000
  51.0700000  89.0000000 154.4170000  50.2220000  87.9180000 153.7810000
  71.7600000  44.2710000 127.2040000  71.3660000  44.9300000 127.7760000
  72.6050000  44.0750000 127.6110000  74.8640000  84.5740000 148.3160000
  75.7530000  84.5800000 147.9600000  74.9590000  84.2040000 149.1930000
  31.4350000  34.6050000 132.5980000  31.0000000  33.7710000 132.7770000
  31.0000000  35.2310000 133.1770000  88.9350000  75.7500000 135.9920000
  88.0390000  75.4850000 135.7830000  89.0000000  76.6490000 135.6710000
  49.5410000  65.3570000 139.9450000  48.7000000  64.9810000 139.6840000
  49.5970000  66.1810000 139.4610000  72.0880000  38.2200000 126.4900000
  72.9460000  37.8320000 126.6630000  72.2710000  38.9570000 125.9060000
  63.4750000  88.9750000 133.6180000  63.5980000  88.0430000 133.4410000
  62.9320000  89.0000000 134.4060000  87.4240000  57.0090000 145.5170000
  86.9130000  57.5590000 146.1110000  88.0680000  56.5800000 146.0810000
  63.4210000  62.3030000 163.8790000  63.6200000  61.3750000 164.0000000
  62.4690000  62.3580000 163.9660000  69.8610000  36.7920000 154.2790000
  69.2980000  36.0980000 154.6210000  69.2680000  37.5280000 154.1250000
  64.3480000  39.0400000 127.0900000  65.2850000  39.1860000 127.2190000
  64.2460000  38.9580000 126.1420000  52.7300000  33.4510000 161.9110000
  51.8810000  33.1970000 161.5480000  52.8750000  34.3390000 161.5830000
  86.1270000  56.6090000 139.6120000  86.6210000  57.2720000 140.0950000
  86.5440000  55.7800000 139.8490000  65.8680000  64.2990000 129.8570000
  65.1470000  63.6690000 129.8540000  66.2250000  64.2500000 130.7440000
  42.2440000  38.7440000 156.9350000  41.3860000  38.6430000 157.3470000
  42.5750000  37.8500000 156.8470000  70.3570000  70.2890000 146.8900000
  70.2950000  69.5280000 147.4670000  70.8980000  69.9910000 146.1580000
  88.3470000  82.5880000 147.4500000  88.3140000  83.4980000 147.1530000
  89.0000000  82.5890000 148.1510000  37.3910000  63.5320000 130.7240000
  38.2340000  63.3460000 131.1370000  37.5310000  63.3400000 129.7960000
  61.1600000  47.2940000 146.3000000  60.9990000  46.5380000 145.7360000
  61.1200000  46.9430000 147.1900000  46.3600000  31.1380000 161.5080000
  46.2590000  32.0890000 161.4610000  47.3070000  31.0000000 161.5460000
  72.2700000  72.6010000 136.7810000  73.0940000  73.0450000 136.5870000
  72.2100000  71.9060000 136.1250000  58.7360000  41.8380000 148.1280000
  58.4170000  41.3230000 148.8690000  59.3710000  41.2670000 147.6950000
  40.7980000  47.7220000 145.8600000  40.0130000  47.6150000 145.3240000
  40.6160000  47.2190000 146.6540000  82.6880000  76.5130000 160.4130000
  81.9950000  76.8640000 160.9710000  82.2430000  75.8850000 159.8430000
  70.8120000  51.6240000 125.5040000  70.8460000  52.3910000 124.9320000
  71.6370000  51.6510000 125.9900000  56.7840000  67.3790000 153.1600000
  56.0510000  67.9660000 152.9720000  57.1320000  67.1480000 152.2980000
  46.1360000  46.9290000 163.6150000  46.1940000  47.8600000 163.3990000
  45.2080000  46.7840000 163.8010000  87.6190000  34.1710000 134.9500000
  88.2390000  33.4560000 135.0910000  86.7760000  33.7350000 134.8190000
  50.7780000  55.5450000 145.9240000  51.0930000  56.4400000 145.8010000
  49.9090000  55.5390000 145.5230000  39.6860000  75.2660000 149.2520000
  39.5160000  75.4040000 148.3210000  38.8680000  74.9050000 149.5950000
  37.6270000  64.0860000 126.3020000  38.1710000  63.3160000 126.1370000
  37.4570000  64.0620000 127.2440000  78.7540000  38.9530000 144.0300000
  78.6480000  39.6800000 143.4160000  79.1740000  39.3450000 144.7960000
  62.8170000  31.2420000 153.4320000  63.0960000  31.1620000 154.3430000
  61.8760000  31.0650000 153.4520000  66.0720000  62.4240000 135.2130000
  65.2270000  62.8690000 135.2740000  66.7170000  63.1310000 135.2270000
  38.4760000  41.5200000 164.0000000  39.4290000  41.4330000 163.9950000
  38.3210000  42.4640000 163.9650000  86.1710000  88.6330000 133.0570000
  85.4870000  89.0000000 132.4970000  85.7040000  88.3240000 133.8340000
  47.2330000  62.3660000 133.4900000  48.0310000  62.8090000 133.2020000
  46.6440000  63.0760000 133.7470000  68.2440000  80.9750000 161.3650000
  67.4320000  80.8080000 161.8440000  67.9700000  81.0670000 160.4520000
  49.7870000  55.2920000 152.7090000  50.6600000  55.6790000 152.7750000
  49.9470000  54.3530000 152.6150000  63.5990000  69.1310000 144.1490000
  62.7490000  69.5280000 143.9580000  64.0790000  69.8080000 144.6260000
  51.1510000  40.3750000 161.6020000  51.6530000  41.1900000 161.6140000
  51.5140000  39.8600000 162.3240000  86.7660000  56.2030000 142.4370000
  86.6460000  55.2640000 142.2930000  87.5230000  56.2620000 143.0200000
  71.3910000  70.0970000 133.8480000  71.5180000  71.0450000 133.8820000
  71.2930000  69.8350000 134.7640000  66.2890000  40.1540000 161.7770000
  65.8110000  39.3950000 161.4440000  65.6460000  40.8640000 161.7710000
  37.9440000  33.6970000 152.0350000  38.2730000  33.0990000 152.7050000
  37.7690000  34.5120000 152.5050000  52.9250000  45.5720000 124.2950000
  53.5550000  46.0270000 124.8540000  53.4160000  45.3640000 123.5000000
  60.4660000  75.9850000 156.2070000  60.5740000  75.2180000 156.7690000
  61.3550000  76.3180000 156.0820000  88.5820000  88.1600000 155.9710000
  89.0000000  89.0000000 155.7850000  89.0000000  87.5450000 155.3680000
  86.8190000  54.2810000 161.7610000  86.4510000  53.3980000 161.7660000
  86.1260000  54.8280000 161.3900000  73.4440000  37.8130000 162.7680000
  73.2240000  38.1100000 163.6510000  72.6030000  37.7660000 162.3130000
  89.0000000  60.2440000 150.8310000  88.8370000  60.1480000 151.7690000
  88.2180000  59.8820000 150.4120000  88.9230000  84.2620000 157.6600000
  89.0000000  83.4140000 157.2230000  89.0000000  84.9040000 156.9540000
  88.1250000  31.2680000 154.0590000  88.9190000  31.0000000 153.5970000
  87.4090000  31.0000000 153.4820000  60.6000000  42.8460000 140.4820000
  60.9000000  42.2470000 141.1650000  60.8310000  43.7160000 140.8080000
  34.7560000  50.7870000 155.9590000  35.1190000  50.0960000 155.4060000
  33.8080000  50.6650000 155.9030000  54.0460000  31.0890000 130.6720000
  54.1510000  31.9980000 130.3930000  53.1100000  31.0000000 130.8540000
  44.1360000  39.0170000 123.5570000  43.6620000  38.2020000 123.7230000
  45.0550000  38.7530000 123.5000000  58.2050000  52.4280000 148.7030000
  57.9120000  53.3390000 148.6660000  57.3960000  51.9170000 148.7340000
  84.9280000  86.4760000 164.0000000  85.5950000  86.7230000 163.3590000
  84.1010000  86.5450000 163.5240000  35.5100000  62.4360000 126.3800000
  35.9350000  62.3810000 125.5240000  36.1040000  61.9770000 126.9730000
  56.8120000  38.5590000 125.9300000  57.4050000  39.1750000 125.5010000
  55.9400000  38.8170000 125.6300000  55.9350000  36.7140000 154.7740000
  56.3530000  37.3730000 155.3280000  54.9980000  36.8980000 154.8480000
  40.9690000  71.9400000 163.8280000  41.7780000  71.4590000 164.0000000
  40.5420000  71.4490000 163.1260000  41.7670000  63.5970000 144.2130000
  41.8610000  64.3090000 144.8460000  42.5560000  63.0670000 144.3290000
  61.0760000  55.6990000 154.1260000  60.4980000  55.9600000 154.8430000
  60.7230000  56.1490000 153.3580000  40.7520000  34.1120000 153.9350000
  39.9590000  34.4650000 154.3370000  40.6980000  33.1680000 154.0850000
  54.3830000  56.4780000 152.5990000  54.2690000  55.9020000 153.3550000
  53.6690000  57.1120000 152.6700000  50.9660000  83.1170000 161.5020000
  50.0990000  82.7120000 161.4980000  51.5750000  82.3810000 161.4360000
  34.8680000  31.0000000 142.3810000  35.2620000  31.3620000 141.5880000
  33.9250000  31.0380000 142.2190000  33.3810000  52.2390000 133.0780000
  34.1660000  52.6350000 133.4570000  33.4100000  51.3260000 133.3660000
  89.0000000  67.8760000 158.7810000  88.5280000  68.1860000 158.0090000
  88.9020000  68.5820000 159.4210000  39.6040000  78.5320000 135.0900000
  38.7280000  78.8290000 134.8420000  39.8870000  79.1520000 135.7620000
  74.4260000  56.1550000 152.7600000  74.0840000  57.0260000 152.9620000
  73.7030000  55.5600000 152.9630000  82.9000000  60.8250000 138.3420000
  83.1940000  60.4460000 139.1710000  83.6980000  60.9040000 137.8190000
  37.7570000  67.4700000 154.7970000  37.8300000  68.3830000 154.5180000
  38.4120000  67.0060000 154.2750000  36.3070000  76.7890000 134.6170000
  36.7010000  77.4960000 134.1060000  36.8820000  76.6930000 135.3770000
  44.7540000  42.7810000 128.9090000  45.1460000  42.4230000 129.7050000
  45.4600000  42.7580000 128.2620000  61.7360000  55.3790000 132.5960000
  61.8010000  54.7150000 131.9100000  62.6380000  55.6660000 132.7380000
  88.1530000  86.0780000 123.5000000  88.3700000  85.1460000 123.5000000
  89.0020000  86.5220000 123.5000000  79.4460000  58.9200000 156.1250000
  79.0180000  58.6990000 155.2980000  78.7240000  59.0640000 156.7380000
  83.6700000  40.2110000 125.9160000  82.8110000  40.1650000 126.3350000
  83.8790000  39.3030000 125.6950000  78.4230000  86.8760000 147.8510000
  78.2360000  85.9510000 148.0120000  78.6930000  86.9090000 146.9330000
  36.5190000  50.3170000 145.7560000  35.9100000  50.9590000 145.3910000
  36.8420000  49.8340000 144.9950000  63.6630000  79.7790000 137.3730000
  63.0160000  79.7970000 138.0780000  63.4780000  78.9690000 136.8970000
  86.6280000  31.1320000 143.6430000  86.4160000  31.0000000 142.7190000
  87.5760000  31.0000000 143.6930000  68.7190000  69.5270000 145.0230000
  68.0900000  69.1240000 145.6220000  68.7240000  68.9520000 144.2570000
  77.4060000  76.1220000 139.2710000  77.4620000  75.2630000 138.8530000
  76.5600000  76.4710000 138.9890000  84.0690000  57.0670000 126.5040000
  83.6080000  57.5200000 125.7980000  84.7470000  56.5580000 126.0590000
  45.4960000  41.9060000 142.5430000  45.5870000  41.3510000 141.7690000
  44.9000000  42.6040000 142.2690000  71.5420000  85.8530000 135.5950000
  71.3480000  85.0240000 135.1570000  72.4480000  86.0450000 135.3530000
  86.1730000  55.4080000 137.0510000  86.9950000  55.6870000 136.6470000
  86.4160000  54.6590000 137.5960000  37.8670000  53.1540000 161.6310000
  38.2630000  52.7860000 160.8410000  38.5420000  53.7300000 161.9920000
  77.7670000  54.8680000 125.7560000  77.3680000  54.0060000 125.6400000
  78.6860000  54.6820000 125.9490000  36.8350000  55.5940000 139.7220000
  37.1190000  55.8690000 138.8510000  36.0200000  56.0730000 139.8710000
  60.4110000  59.4820000 132.8250000  59.5680000  59.2070000 132.4640000
  60.3060000  60.4190000 132.9930000  71.4850000  77.8800000 159.1730000
  72.3410000  77.4540000 159.1760000  70.8570000  77.1580000 159.1370000
  60.2540000  40.9490000 131.1610000  60.6570000  40.1040000 130.9600000
  59.3130000  40.7690000 131.1700000  61.4650000  74.3090000 127.9700000
  60.5110000  74.2410000 127.9880000  61.6640000  75.0430000 128.5520000
  73.3850000  37.1030000 123.7390000  72.8950000  36.6810000 124.4440000
  72.9420000  37.9420000 123.6080000  50.5660000  47.1250000 147.3610000
  50.1720000  46.5410000 146.7130000  50.4570000  46.6660000 148.1950000
  66.4010000  60.2110000 153.2480000  66.7580000  60.6230000 152.4620000
  65.5830000  59.8070000 152.9570000  54.6670000  47.6550000 128.2850000
  55.4800000  47.1710000 128.4250000  54.0490000  46.9970000 127.9640000
  75.9520000  36.1940000 145.7580000  76.5160000  35.7070000 145.1580000
  75.8350000  35.6080000 146.5060000  31.6250000  57.1140000 163.9200000
  31.0000000  56.3930000 164.0000000  31.0800000  57.9000000 163.8760000
  78.7070000  51.6430000 127.2380000  78.5290000  51.0880000 127.9970000
  78.4890000  52.5280000 127.5320000  60.8020000  44.3110000 152.4640000
  60.2130000  43.5670000 152.5860000  60.3650000  44.8590000 151.8120000
  58.7900000  84.3680000 154.2690000  58.2030000  84.7360000 153.6080000
  58.2520000  83.7310000 154.7400000  35.2850000  72.8380000 157.7750000
  35.2760000  73.4810000 157.0660000  35.2840000  73.3640000 158.5760000
  67.3490000  58.4090000 132.4760000  67.5970000  57.8960000 133.2450000
  67.7800000  59.2550000 132.6030000  49.4050000  50.4220000 157.7000000
  49.5180000  51.3630000 157.8300000  48.7710000  50.1620000 158.3690000
  77.0030000  43.1070000 134.2590000  76.1470000  42.6880000 134.3520000
  77.2760000  42.8980000 133.3660000  42.8130000  39.6300000 149.8090000
  43.1870000  39.6040000 148.9290000  41.8720000  39.7390000 149.6670000
  47.5190000  65.9360000 142.5000000  47.7070000  66.2290000 141.6090000
  46.6170000  65.6170000 142.4630000  86.5600000  59.6920000 143.2720000
  86.6300000  59.2960000 142.4030000  86.7760000  60.6140000 143.1340000
  33.5390000  39.6930000 140.0310000  33.3560000  38.8330000 140.4090000
  33.5560000  40.2870000 140.7810000  43.4670000  69.9830000 144.8030000
  43.0000000  69.2120000 144.4820000  44.3490000  69.6650000 144.9970000
  40.9200000  88.4160000 139.8490000  41.4650000  89.0000000 140.3760000
  40.3210000  89.0000000 139.3850000  54.0380000  35.7560000 152.8390000
  54.9490000  35.8710000 152.5690000  53.5400000  35.7750000 152.0220000
  61.2910000  44.4900000 137.2360000  62.1630000  44.6300000 137.6050000
  61.0690000  45.3230000 136.8210000  46.7020000  72.4070000 132.5410000
  46.6340000  71.4520000 132.5700000  46.0640000  72.7120000 133.1870000
  67.1310000  50.6170000 148.3300000  66.2890000  50.7980000 148.7480000
  67.2530000  49.6730000 148.4360000  49.9160000  42.5880000 151.9310000
  50.3380000  43.4460000 151.8750000  50.6420000  41.9640000 151.9420000
  49.6270000  58.7090000 144.0110000  50.3830000  58.9370000 143.4700000
  49.7020000  57.7630000 144.1420000  72.2510000  68.0980000 131.2620000
  72.7500000  67.5660000 131.8820000  72.0210000  68.8870000 131.7530000
  55.5220000  52.7330000 159.1370000  56.4410000  52.9980000 159.0960000
  55.0360000  53.5090000 158.8590000  66.7050000  44.9350000 140.6690000
  65.9730000  44.3250000 140.5720000  66.3310000  45.7920000 140.4620000
  74.3160000  88.7460000 146.3980000  74.5100000  87.8770000 146.7490000
  75.1090000  88.9950000 145.9220000  51.9040000  62.7690000 141.6360000
  52.0500000  61.8240000 141.6690000  52.6950000  63.1470000 142.0210000
  74.3650000  35.2510000 143.7660000  73.8100000  36.0210000 143.8820000
  73.7920000  34.6000000 143.3610000  85.4160000  53.1220000 155.8700000
  85.9050000  53.2260000 156.6860000  85.5640000  52.2110000 155.6160000
  71.1020000  76.5670000 162.6630000  71.9690000  76.3920000 163.0300000
  70.9590000  77.5010000 162.8220000  70.4010000  83.8230000 130.3180000
  70.8750000  83.8540000 131.1490000  70.9670000  83.3110000 129.7380000
  62.9640000  57.2120000 147.1280000  62.1880000  57.7080000 146.8680000
  62.7320000  56.2980000 146.9640000  32.8440000  43.8290000 131.2930000
  33.0200000  42.9210000 131.5380000  33.2860000  44.3490000 131.9640000
  36.2300000  44.3930000 143.3410000  35.4630000  44.9530000 143.4600000
  36.6630000  44.3940000 144.1950000  66.6850000  36.1370000 156.7370000
  66.0150000  36.8130000 156.8370000  67.2370000  36.4520000 156.0200000
  36.1460000  68.2450000 139.8930000  35.3530000  68.4500000 139.3970000
  36.0400000  67.3270000 140.1450000  72.7920000  60.2290000 144.9800000
  72.2590000  59.4370000 145.0490000  73.6950000  59.9110000 144.9810000
  89.0000000  78.7600000 141.5400000  88.8270000  79.6490000 141.8490000
  88.6260000  78.7350000 140.6590000  44.7510000  49.9980000 144.2920000
  44.1160000  49.2870000 144.3640000  44.4580000  50.6480000 144.9320000
  71.8800000  36.8840000 150.0610000  72.1100000  36.3550000 149.2970000
  72.5370000  36.6540000 150.7190000  60.6130000  56.6330000 148.8820000
  60.5380000  56.0390000 148.1350000  60.8210000  56.0620000 149.6220000
  55.0050000  59.9880000 161.9880000  54.9250000  59.0340000 161.9830000
  54.3240000  60.2830000 162.5930000  45.7000000  61.0960000 131.9090000
  45.0620000  61.7530000 132.1860000  45.1900000  60.2900000 131.8200000
  74.4320000  68.6120000 161.0100000  73.7600000  69.0630000 160.5000000
  73.9990000  68.3940000 161.8370000  31.5830000  63.9440000 127.0910000
  31.0000000  63.4520000 126.5120000  31.0020000  64.5390000 127.5660000
  40.0930000  69.7790000 155.5050000  39.3020000  69.7250000 156.0410000
  40.2570000  68.8780000 155.2270000  60.1700000  36.2940000 163.1860000
  59.5060000  35.8790000 162.6350000  60.1870000  35.7630000 163.9830000
  40.6150000  85.6260000 143.3600000  40.1030000  86.3750000 143.0550000
  39.9720000  84.9240000 143.4680000  54.7480000  60.6570000 151.9030000
  54.1730000  60.0080000 152.3070000  54.4750000  61.4910000 152.2860000
  59.4430000  66.3810000 159.5870000  58.7190000  65.8550000 159.2490000
  59.6720000  65.9680000 160.4200000  82.4380000  31.9750000 129.4500000
  81.9480000  31.9610000 128.6280000  81.8770000  31.5090000 130.0710000
  59.9740000  62.2140000 163.9010000  59.5600000  61.3540000 163.9690000
  59.2520000  62.8360000 164.0000000  59.4830000  49.4470000 144.5950000
  59.6420000  48.5030000 144.5960000  58.5290000  49.5300000 144.5950000
  69.0390000  76.2710000 129.1060000  69.9840000  76.1510000 129.0060000
  68.9190000  77.2200000 129.1210000  58.4450000  65.1360000 162.4330000
  58.4240000  65.9360000 162.9570000  57.6850000  65.2070000 161.8550000
  49.5250000  35.9460000 157.6610000  50.2480000  36.5580000 157.7970000
  48.7890000  36.4970000 157.3950000  67.9510000  67.8300000 161.5640000
  67.9210000  68.7870000 161.5580000  67.0310000  67.5620000 161.5790000
  57.0390000  67.8710000 148.9500000  56.1150000  67.9880000 148.7320000
  57.2980000  67.0770000 148.4820000  66.9240000  47.8920000 145.6880000
  67.3270000  47.8550000 146.5560000  67.3040000  47.1510000 145.2150000
  62.9300000  48.1440000 128.7280000  63.6310000  47.6170000 128.3440000
  62.1490000  47.5960000 128.6500000  35.3110000  69.8340000 159.3660000
  34.5940000  70.1630000 159.9080000  35.6000000  70.5960000 158.8630000
  70.8740000  56.6180000 126.4920000  70.8480000  55.7430000 126.8790000
  71.6550000  56.6110000 125.9370000  80.5540000  67.0910000 148.5630000
  80.2050000  66.6410000 147.7940000  81.0410000  67.8340000 148.2050000
  52.8430000  62.2010000 157.1200000  52.0690000  62.4880000 157.6050000
  53.3380000  61.6760000 157.7490000  73.6500000  88.7270000 132.3450000
  72.7290000  88.9710000 132.2630000  74.0450000  89.0000000 131.5160000
  51.0800000  37.0140000 153.0140000  50.3850000  36.9480000 153.6680000
  50.6180000  37.1410000 152.1850000  37.5170000  52.9700000 137.2270000
  38.3020000  52.4250000 137.2770000  37.8480000  53.8680000 137.2110000
  46.6200000  55.5280000 140.6060000  46.4420000  55.6540000 141.5380000
  47.5520000  55.7250000 140.5110000  77.2620000  89.0000000 148.4730000
  77.1620000  88.5140000 149.2910000  76.6110000  88.6150000 147.8850000
  52.8700000  56.8060000 148.1250000  52.6750000  57.4360000 148.8180000
  52.1520000  56.1730000 148.1660000  33.4940000  46.4320000 143.0310000
  33.0710000  46.4140000 143.8890000  33.1520000  45.6610000 142.5780000
  80.9820000  59.3400000 137.5690000  81.1660000  58.9080000 138.4030000
  80.9190000  58.6240000 136.9370000  51.6230000  76.6320000 143.9220000
  50.8060000  76.1500000 143.7930000  51.3520000  77.5470000 143.9990000
  68.9920000  71.2240000 161.1670000  68.7240000  72.1280000 161.0100000
  68.8210000  70.7750000 160.3390000  44.1630000  55.0110000 123.5000000
  44.4680000  55.4140000 124.3130000  43.4480000  54.4360000 123.7720000
  79.3610000  61.3280000 142.6030000  79.0990000  62.2070000 142.3280000
  79.8660000  61.4680000 143.4040000  57.5960000  59.6560000 148.2510000
  57.4650000  59.6080000 147.3040000  57.7850000  58.7550000 148.5130000
  61.6370000  88.9560000 158.7810000  61.3500000  88.0440000 158.8280000
  62.1660000  89.0000000 157.9840000  54.7130000  71.2570000 145.8250000
  54.5760000  71.9980000 145.2360000  55.3230000  71.5860000 146.4860000
  63.0100000  70.9120000 159.4810000  63.5620000  71.5630000 159.0490000
  62.4440000  70.5770000 158.7850000  37.7220000  34.4520000 155.9600000
  37.7020000  33.8490000 155.2180000  38.2990000  34.0300000 156.5970000
  44.2180000  63.5080000 134.4420000  43.2970000  63.7490000 134.5400000
  44.2780000  62.6300000 134.8210000  82.5760000  58.9640000 146.1180000
  81.6960000  58.6400000 145.9270000  82.7770000  59.5560000 145.3930000
  51.5510000  34.7480000 159.3960000  50.7320000  34.6670000 159.8850000
  51.8960000  35.6050000 159.6460000  88.7780000  45.8690000 129.3030000
  88.5050000  46.4690000 129.9970000  89.0000000  46.4400000 128.5660000
  81.8600000  86.4160000 140.7350000  82.8100000  86.4010000 140.6180000
  81.5300000  86.8640000 139.9560000  86.2700000  57.5750000 134.8000000
  85.7300000  58.3030000 135.1050000  85.6420000  56.8920000 134.5640000
  89.0000000  70.7110000 164.0000000  88.8980000  71.6620000 163.9560000
  88.1040000  70.3730000 163.9860000  83.9780000  58.6890000 141.0170000
  84.3550000  58.3220000 140.2170000  84.2250000  58.0700000 141.7040000
  57.2720000  88.8740000 127.8790000  57.5040000  89.0000000 128.7990000
  56.8900000  87.9970000 127.8450000  82.9520000  68.2810000 161.2660000
  82.4380000  68.9010000 161.7830000  82.9210000  67.4660000 161.7680000
  47.5700000  87.1650000 153.2080000  47.5650000  87.0240000 154.1540000
  46.7460000  86.7820000 152.9040000  77.2490000  34.0630000 160.4540000
  76.5230000  33.8470000 159.8700000  77.9910000  33.5650000 160.1100000
  80.4440000  67.6460000 123.5070000  79.4970000  67.5200000 123.5560000
  80.7070000  67.8420000 124.4070000  67.0360000  79.9080000 129.3370000
  66.7760000  79.1230000 129.8170000  67.7250000  79.6100000 128.7430000
  55.2880000  53.2080000 149.1070000  55.6160000  54.0370000 149.4540000
  54.4160000  53.1150000 149.4920000  88.0600000  36.2020000 130.3650000
  87.7900000  35.9740000 129.4760000  89.0000000  36.0200000 130.3840000
  88.7790000  77.5390000 159.8890000  87.8890000  77.8620000 160.0260000
  88.6770000  76.5940000 159.7740000  88.4150000  82.7340000 151.4100000
  89.0000000  83.4450000 151.6720000  89.0000000  82.0010000 151.2180000
  32.5340000  58.9030000 154.6180000  33.0330000  58.7410000 153.8180000
  32.6880000  59.8280000 154.8140000  82.9320000  83.7000000 141.5730000
  83.6150000  83.2480000 142.0670000  82.5310000  84.2950000 142.2070000
  82.9790000  62.9620000 142.8210000  82.0510000  63.0870000 143.0190000
  83.4330000  63.5610000 143.4140000  80.3870000  68.1300000 145.5460000
  79.5190000  68.4120000 145.8340000  80.9480000  68.8910000 145.6950000
  42.0410000  80.9430000 146.8200000  41.5540000  81.7670000 146.8310000
  42.9610000  81.2070000 146.8510000  88.7910000  73.7830000 161.5050000
  88.7960000  73.6570000 162.4540000  89.0000000  74.7100000 161.3850000
  55.5740000  81.1130000 153.0740000  55.8250000  80.7570000 153.9260000
  56.3540000  81.5790000 152.7700000  39.9890000  52.2080000 132.6610000
  39.9420000  53.1600000 132.5830000  39.1980000  51.9670000 133.1430000
  34.0250000  71.5020000 130.5540000  34.6100000  70.8260000 130.2110000
  33.2970000  71.0150000 130.9410000  37.8860000  61.2660000 152.9060000
  37.5530000  61.6410000 152.0910000  37.1070000  61.1450000 153.4500000
  46.0710000  43.8380000 148.2130000  46.3470000  43.4850000 147.3670000
  45.6240000  44.6560000 147.9970000  73.5030000  61.5520000 162.4230000
  74.1960000  61.6000000 161.7650000  72.7020000  61.7640000 161.9430000
  57.0490000  42.5470000 161.7930000  56.2650000  42.6900000 162.3230000
  56.7560000  42.6790000 160.8910000  42.7130000  66.2890000 123.5260000
  42.9520000  66.4320000 124.4410000  42.3940000  65.3860000 123.5000000
  63.4070000  56.5790000 149.5060000  63.7440000  57.4750000 149.4890000
  64.1910000  56.0290000 149.5150000  72.3360000  35.2310000 141.2450000
  72.1230000  36.1630000 141.2940000  71.7330000  34.8150000 141.8620000
  72.7770000  76.8950000 140.6150000  71.9890000  76.3560000 140.6800000
  73.4990000  76.2660000 140.6050000  33.2190000  81.3520000 140.1240000
  33.4150000  80.6710000 140.7680000  32.8580000  82.0730000 140.6410000
  73.2110000  63.2080000 155.6370000  73.2010000  62.6430000 154.8650000
  74.1340000  63.2540000 155.8890000  76.0820000  67.0210000 136.9310000
  75.2520000  66.5440000 136.9050000  76.7500000  66.3450000 136.8170000
  70.7630000  84.8170000 143.0790000  69.8240000  84.9420000 143.2110000
  71.1130000  85.7030000 142.9840000  48.8650000  65.1610000 125.7280000
  48.0080000  64.7660000 125.5720000  48.6700000  66.0590000 125.9970000
  46.1560000  82.0830000 139.3300000  45.6330000  82.6330000 139.9120000
  45.6150000  81.9780000 138.5470000  31.2210000  58.4370000 139.4420000
  31.2340000  58.3650000 138.4880000  31.0000000  57.5570000 139.7460000
  42.4790000  81.3560000 137.1580000  43.3280000  80.9600000 137.3550000
  42.6810000  82.2720000 136.9670000  31.0000000  61.2040000 124.0630000
  31.0370000  60.4190000 123.5170000  31.3330000  61.9040000 123.5000000
  82.8130000  47.8750000 152.7490000  81.9530000  48.2220000 152.5110000
  83.3990000  48.6300000 152.6950000  73.4130000  79.3900000 135.7430000
  73.5550000  80.2510000 136.1370000  74.1450000  78.8590000 136.0570000
  59.4930000  58.3680000 154.3630000  60.4180000  58.5680000 154.2200000
  59.1540000  59.1250000 154.8420000  39.8680000  84.5770000 151.7940000
  40.2770000  83.9750000 152.4150000  40.6020000  85.0270000 151.3760000
  87.0260000  80.1180000 126.8690000  86.8820000  80.6500000 127.6510000
  86.1590000  80.0410000 126.4690000  85.0500000  88.7280000 129.1290000
  84.4600000  87.9770000 129.0660000  84.9950000  89.0000000 130.0450000
  45.5730000  50.7370000 124.2820000  45.4030000  51.2620000 123.5000000
  44.8220000  50.9070000 124.8520000  66.1310000  41.8350000 157.4240000
  65.6300000  42.6470000 157.3610000  67.0460000  42.1180000 157.4410000
  48.2530000  60.3370000 132.3790000  49.0900000  59.9950000 132.0630000
  47.6730000  59.5760000 132.3930000  38.8980000  44.6400000 142.4460000
  38.6040000  43.7510000 142.6440000  39.7400000  44.5210000 142.0050000
  71.5910000  64.9680000 162.9680000  71.4340000  64.8530000 163.9050000
  71.1620000  64.2160000 162.5590000  79.0150000  44.1030000 131.6370000
  79.9530000  44.1590000 131.4610000  78.7940000  44.9460000 132.0340000
  77.2800000  56.9350000 163.9450000  78.0320000  56.3450000 163.9970000
  76.5180000  56.3550000 163.9610000  42.4420000  83.6390000 126.0230000
  43.1820000  84.2450000 125.9900000  41.6870000  84.1920000 126.2260000
  38.6240000  31.3500000 138.6820000  39.1290000  31.0000000 137.9480000
  37.7420000  31.0000000 138.5560000  52.7340000  74.2820000 141.3310000
  52.1790000  73.5040000 141.3900000  52.2650000  74.9500000 141.8320000
  50.2550000  68.9570000 138.9080000  49.8580000  68.7970000 139.7640000
  49.6900000  68.4900000 138.2910000  57.5010000  75.1860000 151.6350000
  58.2610000  75.4580000 152.1490000  57.1710000  75.9960000 151.2470000
  64.4300000  77.3820000 146.6430000  65.1210000  76.7230000 146.5880000
  64.3440000  77.5620000 147.5800000  81.3570000  33.2810000 156.2990000
  81.0250000  32.6390000 155.6720000  81.5560000  32.7700000 157.0840000
  71.0420000  71.6820000 143.7410000  70.5150000  70.8830000 143.7630000
  71.9480000  71.3720000 143.7370000  60.6250000  52.7850000 134.4400000
  60.3610000  53.3050000 133.6820000  61.5810000  52.7540000 134.3880000
  48.3320000  85.9470000 132.7680000  47.7430000  85.5110000 132.1530000
  47.8460000  86.7190000 133.0590000  60.1830000  64.7620000 144.5520000
  59.4180000  64.3080000 144.9040000  60.8620000  64.6380000 145.2160000
  79.6190000  45.4740000 147.5570000  80.5570000  45.6600000 147.5320000
  79.2100000  46.3270000 147.7100000  41.0830000  44.2960000 161.1760000
  40.9220000  45.1970000 161.4570000  42.0310000  44.2510000 161.0450000
  88.4160000  56.8030000 138.4200000  89.0000000  57.5180000 138.6740000
  89.0000000  56.1270000 138.0740000  34.3540000  62.7470000 150.0680000
  33.8340000  62.1550000 149.5250000  33.7350000  63.4200000 150.3510000
  51.7720000  85.7030000 141.9860000  51.3630000  86.5670000 141.9400000
  52.4700000  85.8020000 142.6340000  39.5050000  55.0330000 156.2350000
  39.8320000  55.1390000 155.3420000  38.6450000  55.4540000 156.2270000
  62.3050000  89.0010000 145.5580000  62.0030000  88.1210000 145.3330000
  62.9160000  88.8670000 146.2830000  84.0180000  70.0540000 128.0220000
  84.2930000  69.1760000 128.2850000  84.8360000  70.5430000 127.9250000
  62.1850000  68.9790000 129.0080000  61.8390000  69.4000000 128.2210000
  61.4500000  68.9750000 129.6210000  40.8400000  65.1900000 139.6440000
  40.9980000  66.1340000 139.6750000  39.8860000  65.1080000 139.6240000
  82.0450000  62.7260000 160.4920000  82.2520000  63.5570000 160.0660000
  82.5800000  62.7230000 161.2860000  42.8630000  58.5620000 135.7560000
  43.5370000  58.8800000 135.1570000  43.3120000  58.4680000 136.5960000
  70.4970000  73.5500000 138.3060000  70.2750000  74.3130000 138.8400000
  69.9330000  72.8510000 138.6400000  63.7000000  51.3070000 134.3360000
  64.0410000  52.1960000 134.2430000  64.2880000  50.8900000 134.9660000
  37.2750000  84.2860000 149.4790000  36.8570000  84.7330000 150.2140000
  36.5690000  83.7850000 149.0690000  43.6570000  51.6110000 134.0670000
  44.3840000  52.0470000 133.6230000  43.9390000  50.7000000 134.1510000
  88.9380000  63.1670000 143.4930000  89.0000000  62.5170000 144.1920000
  88.4530000  62.7250000 142.7960000  84.7270000  74.9010000 138.2040000
  84.4900000  75.3510000 139.0140000  85.6820000  74.8360000 138.2350000
  57.2620000  64.1500000 135.2430000  57.7370000  63.3260000 135.1430000
  56.3460000  63.8880000 135.3430000  75.0170000  46.2940000 136.5580000
  74.6540000  46.7170000 137.3360000  74.2540000  45.9520000 136.0930000
  48.2310000  46.6330000 134.1110000  48.2190000  46.2290000 133.2440000
  47.8970000  45.9540000 134.6970000  36.1330000  49.5310000 132.8360000
  37.0690000  49.6230000 132.6610000  35.8510000  50.4080000 133.0990000
  31.1130000  66.0420000 130.5730000  31.6280000  65.2740000 130.8220000
  31.0000000  66.5300000 131.3890000  55.9160000  62.0540000 150.0820000
  55.9320000  61.1720000 149.7100000  56.7900000  62.1720000 150.4550000
  64.3190000  31.0080000 156.9730000  64.9970000  31.0640000 156.3010000
  64.7950000  31.0840000 157.8010000  66.1180000  36.4650000 162.0470000
  65.1780000  36.5930000 161.9240000  66.2530000  35.5260000 161.9100000
  51.5890000  39.7420000 131.3910000  52.3120000  39.1150000 131.3960000
  50.8100000  39.2110000 131.5580000  70.8040000  59.5930000 126.5950000
  70.4010000  59.0120000 125.9500000  71.1960000  60.2940000 126.0740000
  86.5030000  66.1020000 139.4570000  85.5610000  65.9450000 139.5110000
  86.6300000  66.5120000 138.6010000  39.8050000  43.1780000 127.8680000
  40.0010000  42.5490000 127.1740000  40.4120000  43.9020000 127.7150000
  60.6350000  66.8140000 155.3240000  59.8960000  67.1880000 154.8440000
  61.3850000  66.9340000 154.7410000  68.9730000  75.9080000 160.4120000
  68.8780000  75.6720000 159.4890000  68.0760000  76.0390000 160.7200000
  37.1730000  86.8930000 153.1400000  37.1250000  85.9430000 153.0370000
  38.1030000  87.0990000 153.0390000  33.7630000  79.5580000 156.5820000
  32.9520000  79.5550000 156.0740000  34.4490000  79.3770000 155.9390000
  74.4660000  40.2380000 130.5930000  73.5920000  39.9040000 130.7940000
  74.3210000  41.1460000 130.3250000  79.2160000  81.1630000 137.9360000
  78.7940000  80.7450000 138.6870000  79.0070000  80.5920000 137.1960000
  82.9310000  78.0660000 127.0730000  83.5030000  78.5960000 126.5180000
  82.6920000  78.6470000 127.7960000  55.4330000  57.2300000 156.5520000
  56.3710000  57.4160000 156.5070000  55.1770000  57.0670000 155.6440000
  69.8890000  58.2970000 134.9100000  70.6570000  58.7180000 135.2960000
  69.3010000  59.0210000 134.6940000  78.9310000  56.4230000 138.8040000
  78.7600000  56.9910000 139.5560000  79.6430000  56.8560000 138.3330000
  49.6240000  63.6540000 142.3510000  49.8510000  64.5830000 142.3020000
  48.9520000  63.6070000 143.0310000  65.1040000  48.0040000 149.0660000
  64.7160000  48.8760000 149.1380000  64.3640000  47.4040000 149.1560000
  62.8900000  50.6660000 159.0900000  63.4570000  49.9040000 159.2040000
  63.4930000  51.4080000 159.0410000  53.7400000  31.5960000 127.7970000
  54.2830000  31.0340000 127.2440000  53.1050000  31.0000000 128.1940000
  82.9220000  88.9880000 145.7320000  83.8040000  89.0000000 145.3590000
  83.0620000  89.0000000 146.6790000  69.7570000  43.1410000 163.9250000
  70.4960000  43.7490000 163.9310000  70.1580000  42.2750000 164.0000000
  88.0430000  31.0000000 123.5140000  89.0000000  31.0060000 123.5000000
  87.7970000  31.9260000 123.5120000  66.5700000  78.1330000 156.8210000
  65.6310000  78.0580000 156.6540000  66.8730000  78.7950000 156.1980000
  38.5020000  81.1910000 128.4540000  37.5720000  81.1650000 128.2270000
  38.7420000  82.1150000 128.3750000  70.4020000  51.7760000 136.2930000
  69.8350000  51.2420000 135.7370000  69.8000000  52.3490000 136.7700000
  34.5570000  60.5500000 123.6390000  34.7200000  61.4820000 123.5000000
  33.6050000  60.4610000 123.5830000  76.0530000  62.8400000 135.7890000
  75.0980000  62.8020000 135.7410000  76.2530000  63.7740000 135.8550000
  70.9330000  63.1080000 138.8820000  71.2920000  62.8880000 139.7410000
  70.0240000  63.3520000 139.0560000  70.9450000  51.5640000 131.1350000
  71.0200000  50.6910000 131.5210000  70.3050000  51.4600000 130.4310000
  88.9970000  56.0430000 160.8480000  88.0780000  56.3070000 160.8880000
  88.9700000  55.0900000 160.7600000  31.0000000  57.4330000 148.4720000
  31.8390000  57.4710000 148.0140000  31.0630000  56.6550000 149.0260000
  80.9240000  51.8310000 128.9300000  81.3860000  52.6120000 128.6230000
  81.2310000  51.7100000 129.8290000  75.5780000  71.9880000 123.5000000
  74.7470000  71.5120000 123.5010000  76.0170000  71.7060000 124.3030000
  61.5940000  75.6740000 160.9840000  62.0440000  75.5870000 161.8240000
  61.0210000  76.4330000 161.0960000  74.3750000  79.0070000 133.1390000
  75.2050000  78.9260000 133.6090000  74.2800000  79.9460000 132.9790000
  86.2330000  75.1660000 129.4040000  87.0780000  75.0310000 129.8330000
  85.7290000  75.6900000 130.0280000  69.4270000  43.7480000 141.6900000
  69.4070000  43.4800000 142.6080000  68.5970000  43.4330000 141.3290000
  51.1110000  78.4720000 127.0620000  50.3870000  77.9380000 126.7340000
  51.8260000  77.8490000 127.1990000  67.1630000  88.9970000 144.3380000
  67.4100000  89.0000000 145.2630000  67.5870000  88.2160000 143.9800000
  38.1960000  76.3560000 126.1380000  37.3510000  76.5180000 125.7190000
  38.1690000  75.4300000 126.3820000  81.3260000  64.3040000 140.0730000
  81.5580000  64.6760000 139.2220000  82.1150000  63.8430000 140.3570000
  71.6940000  82.6430000 147.2820000  72.1280000  83.4880000 147.4070000
  71.7630000  82.4750000 146.3420000  85.2830000  31.0000000 138.0320000
  85.7480000  31.0000000 137.1960000  84.3600000  31.0910000 137.7930000
  70.4160000  55.7490000 142.0710000  71.1140000  56.3130000 142.4020000
  69.6120000  56.1270000 142.4280000  77.6430000  81.5150000 147.2820000
  77.1890000  82.3400000 147.4570000  78.0700000  81.2960000 148.1100000
  45.0670000  56.1750000 161.1060000  45.7060000  56.0490000 160.4050000
  45.0610000  57.1210000 161.2580000  83.1580000  34.6270000 154.9440000
  83.2690000  34.8420000 154.0180000  83.8620000  35.1010000 155.3870000
  74.3680000  44.3120000 125.7190000  73.9610000  43.5130000 125.3850000
  73.7150000  44.9950000 125.5680000  61.9620000  55.8430000 139.1450000
  61.8730000  55.5450000 138.2400000  62.8320000  56.2440000 139.1810000
  54.8050000  49.3990000 123.5000000  54.6590000  50.1710000 124.0450000
  53.9890000  48.9030000 123.5630000  85.0930000  38.9970000 154.1070000
  85.8810000  39.4810000 153.8610000  85.3970000  38.3540000 154.7490000
  57.0520000  62.1840000 137.2580000  57.7740000  62.5050000 137.7990000
  57.2110000  61.2430000 137.1820000  57.9030000  49.2100000 132.8670000
  58.0940000  49.5940000 133.7220000  57.2800000  49.8150000 132.4660000
  45.8960000  57.6740000 123.8640000  46.5930000  57.9480000 124.4600000
  45.5560000  58.4920000 123.5000000  79.3630000  38.0940000 130.9620000
  80.2200000  38.3880000 131.2690000  79.3360000  37.1620000 131.1820000
  46.1810000  59.9940000 137.0400000  45.2300000  60.0580000 136.9580000
  46.3650000  59.0560000 136.9870000  36.7860000  37.6680000 148.5770000
  36.4800000  37.9850000 149.4270000  35.9850000  37.4490000 148.1000000
  33.2920000  56.6390000 139.2270000  32.7260000  56.0990000 138.6760000
  33.1400000  56.3180000 140.1160000  43.2220000  47.1470000 145.6530000
  44.1790000  47.1540000 145.6670000  42.9970000  47.0800000 144.7240000
  72.9840000  64.1480000 135.7520000  72.5050000  63.3200000 135.7900000
  72.4830000  64.6880000 135.1400000  67.3360000  80.3280000 124.5410000
  67.0890000  79.6920000 125.2120000  67.0160000  79.9490000 123.7220000
  46.3410000  37.9670000 152.4600000  46.5710000  38.8070000 152.8570000
  45.4040000  38.0380000 152.2740000  59.6680000  84.0740000 164.0000000
  60.5870000  83.8100000 164.0000000  59.1810000  83.2500000 164.0000000
  31.0000000  44.5560000 154.8710000  31.0260000  45.4260000 154.4720000
  31.9120000  44.2650000 154.8690000  33.2880000  77.3430000 153.3770000
  33.6570000  78.2180000 153.4970000  34.0400000  76.7550000 153.4440000
  40.0280000  48.5640000 159.1720000  40.2760000  49.4850000 159.2400000
  40.8230000  48.0830000 159.4020000  55.5740000  80.9240000 134.7310000
  55.4220000  81.8690000 134.7050000  54.7020000  80.5380000 134.6340000
  68.1480000  31.1600000 154.7750000  68.0050000  31.0000000 153.8420000
  67.2800000  31.0700000 155.1690000  42.6470000  47.9210000 135.7210000
  43.3070000  48.3090000 135.1470000  42.0900000  48.6560000 135.9780000
  44.3910000  65.4020000 163.9600000  45.3160000  65.6440000 163.9360000
  43.9250000  66.2380000 164.0000000  86.9420000  34.6780000 126.1790000
  87.6790000  34.5710000 125.5780000  86.9040000  33.8520000 126.6610000
  65.2460000  81.6260000 131.6980000  65.3000000  82.5810000 131.7000000
  66.1590000  81.3340000 131.6970000  76.4480000  69.4200000 150.1320000
  76.5240000  70.3720000 150.0750000  75.6930000  69.2060000 149.5840000
  76.7860000  72.2740000 152.3780000  76.0740000  71.6900000 152.6390000
  77.5490000  71.7020000 152.2990000  77.6800000  64.6110000 123.7400000
  78.3010000  63.8960000 123.5970000  78.1650000  65.4010000 123.5000000
  86.1960000  36.7600000 124.4020000  86.0940000  37.0630000 123.5000000
  86.5560000  37.5140000 124.8700000  75.6370000  46.9490000 124.8810000
  76.5030000  46.6250000 124.6340000  75.8060000  47.5760000 125.5840000
  56.2730000  33.2730000 143.7290000  56.1290000  34.2070000 143.8760000
  57.2240000  33.1820000 143.6740000  82.4270000  77.1680000 135.9840000
  81.5780000  76.7290000 136.0340000  82.5690000  77.3070000 135.0470000
  38.0640000  45.8350000 129.0820000  37.8770000  44.9180000 129.2800000
  37.2030000  46.2300000 128.9390000  63.3720000  82.8510000 148.7090000
  62.9550000  82.9850000 147.8580000  64.1940000  82.4050000 148.5060000
  50.4660000  37.9010000 139.8920000  50.8620000  38.7060000 139.5580000
  49.5330000  38.1060000 139.9690000  74.1310000  60.2160000 152.9280000
  75.0170000  60.1620000 152.5710000  73.5670000  60.2970000 152.1590000
  62.0650000  57.5670000 151.7960000  62.5790000  58.3290000 151.5290000
  62.7090000  56.8650000 151.8900000  31.2270000  69.2530000 160.9770000
  31.2060000  70.2070000 160.8940000  32.0880000  69.0630000 161.3500000
  75.6610000  65.8880000 128.7430000  75.7880000  65.3920000 129.5520000
  76.2110000  66.6650000 128.8490000  43.1870000  66.9120000 151.8860000
  43.0400000  65.9740000 151.7660000  42.6520000  67.3280000 151.2100000
  50.9600000  86.7000000 123.7580000  51.1770000  86.1310000 124.4960000
  50.0770000  86.4330000 123.5000000  66.9490000  64.5830000 152.2910000
  67.7490000  64.9680000 152.6470000  66.7330000  65.1310000 151.5360000
  33.1400000  44.9560000 161.2140000  33.6230000  44.2540000 160.7780000
  32.2940000  44.9790000 160.7670000  66.3240000  31.5940000 160.5760000
  66.9350000  31.0000000 160.1400000  65.5580000  31.0520000 160.7660000
  88.9730000  45.3630000 141.6470000  89.0000000  46.3190000 141.6200000
  88.4630000  45.1590000 142.4310000  54.1850000  55.3250000 146.5880000
  55.0080000  55.6560000 146.2300000  54.4220000  54.9670000 147.4430000
  44.3490000  65.4330000 141.4280000  43.7670000  65.8420000 142.0680000
  44.6880000  66.1640000 140.9110000  36.7160000  47.5010000 157.5170000
  35.9650000  47.9480000 157.1270000  36.7170000  47.7870000 158.4310000
  79.0440000  36.1970000 140.0860000  79.1920000  36.9060000 140.7130000
  79.2940000  36.5690000 139.2400000  33.4630000  70.6100000 143.7260000
  33.5840000  71.1420000 144.5120000  34.3470000  70.4900000 143.3790000
  47.6470000  77.8870000 130.9240000  47.1670000  77.1330000 131.2660000
  46.9840000  78.4090000 130.4720000  59.0520000  48.4870000 127.2860000
  58.6580000  48.1880000 126.4670000  58.8540000  49.4230000 127.3200000
  57.5730000  33.1520000 146.9890000  57.5350000  33.5200000 147.8710000
  57.2020000  33.8340000 146.4280000  41.8410000  47.4510000 162.8370000
  41.8840000  46.6060000 163.2850000  42.2050000  47.2810000 161.9680000
  89.0000000  51.7470000 160.9580000  88.8650000  52.6440000 161.2630000
  88.5150000  51.2050000 161.5810000  50.2110000  43.1540000 132.4420000
  50.4410000  42.5980000 131.6980000  51.0490000  43.5000000 132.7510000
  87.9530000  63.5530000 164.0000000  87.4300000  63.3300000 163.2300000
  88.8350000  63.2460000 163.7890000  73.9830000  50.3800000 161.2450000
  74.6240000  49.9600000 161.8170000  73.2000000  49.8330000 161.3190000
  67.7570000  40.7170000 151.9850000  68.0650000  39.8110000 151.9830000
  67.7190000  40.9590000 151.0590000  31.0000000  87.7670000 133.0480000
  31.0000000  87.2400000 133.8470000  31.0000000  88.6730000 133.3580000
  82.3970000  73.2940000 148.5440000  82.4760000  72.7530000 149.3300000
  83.2140000  73.1460000 148.0670000  82.3030000  43.7530000 144.9060000
  82.3320000  43.0950000 145.6000000  81.5970000  44.3450000 145.1660000
  55.6060000  72.7160000 156.6620000  55.4620000  73.0770000 155.7880000
  54.7520000  72.7750000 157.0900000  63.0620000  42.6200000 138.9150000
  63.2650000  42.4210000 138.0010000  63.9110000  42.8130000 139.3130000
  31.0180000  79.5850000 163.3480000  31.7930000  79.7700000 162.8180000
  31.0000000  80.2860000 164.0000000  31.0000000  31.6100000 140.8780000
  31.2230000  31.0700000 140.1200000  31.0000000  31.0000000 141.6160000
  69.8750000  39.0390000 134.1410000  70.0410000  39.8480000 133.6580000
  69.7650000  39.3200000 135.0500000  33.4460000  88.9990000 149.5520000
  33.7150000  89.0000000 150.4700000  32.4890000  88.9830000 149.5830000
  59.9430000  84.4920000 157.8390000  60.0960000  85.3910000 158.1270000
  59.9340000  83.9800000 158.6490000  72.8520000  57.4740000 163.4250000
  73.5750000  57.7240000 164.0000000  72.2840000  56.9330000 163.9750000
  54.9390000  36.7500000 136.2570000  54.9320000  37.6430000 136.6000000
  54.2500000  36.7420000 135.5920000  56.1360000  86.7210000 137.9870000
  55.2680000  87.0860000 137.8150000  56.0210000  85.7750000 137.8910000
  40.7140000  40.0520000 129.1240000  40.3480000  39.1680000 129.0930000
  39.9500000  40.6280000 129.1370000  54.4870000  44.2660000 156.4370000
  55.3930000  44.0950000 156.6930000  54.3380000  43.6960000 155.6830000
  58.5470000  49.4290000 155.0820000  58.8540000  48.8140000 154.4160000
  58.3960000  50.2450000 154.6040000  82.7390000  65.8250000 142.2150000
  83.3430000  66.0770000 141.5170000  81.9690000  66.3770000 142.0760000
  86.5790000  73.1370000 154.3200000  86.3530000  73.4540000 153.4460000
  86.8410000  73.9230000 154.8010000  40.2670000  56.8690000 157.7630000
  40.4180000  56.2000000 158.4310000  39.3660000  57.1580000 157.9130000
  43.3490000  50.7610000 139.8230000  42.9920000  49.9530000 140.1900000
  44.1280000  50.9410000 140.3500000  85.8180000  53.0160000 148.2050000
  85.0930000  53.0140000 147.5800000  86.3490000  52.2580000 147.9590000
  81.3300000  50.7330000 152.7780000  80.8460000  51.4450000 153.1970000
  82.2490000  50.9230000 152.9690000  47.0800000  44.9060000 151.9870000
  46.1490000  45.1150000 151.9130000  47.4270000  45.0420000 151.1050000
  65.5050000  61.4060000 125.3240000  64.7360000  61.4260000 125.8930000
  65.1740000  61.0840000 124.4850000  34.0730000  50.1720000 161.6170000
  34.4570000  51.0420000 161.5070000  33.2900000  50.3210000 162.1490000
  36.4300000  36.0220000 124.8240000  36.2020000  35.1190000 125.0420000
  37.1930000  35.9460000 124.2510000  69.3140000  34.8340000 123.5570000
  68.8150000  34.0190000 123.5000000  70.2300000  34.5550000 123.5660000
  55.5670000  64.1580000 152.6280000  55.9500000  65.0060000 152.8540000
  56.3180000  63.5690000 152.5520000  35.7130000  81.3620000 157.8230000
  35.1950000  81.8100000 157.1540000  36.2510000  82.0510000 158.2120000
  88.0740000  40.6400000 154.1740000  89.0000000  40.4290000 154.2960000
  88.0110000  41.5720000 154.3840000  58.0230000  73.5670000 153.7680000
  58.0580000  72.6160000 153.8680000  57.0930000  73.7630000 153.6530000
  76.9250000  31.4060000 149.0760000  77.5070000  31.0310000 148.4150000
  77.2020000  31.0000000 149.8980000  88.8560000  48.2460000 124.4160000
  88.0410000  48.6880000 124.6540000  89.0000000  48.4840000 123.5000000
  88.5420000  51.9790000 155.8330000  87.8640000  51.5420000 156.3490000
  89.0000000  51.2670000 155.3860000  68.7050000  56.3450000 155.7450000
  69.3830000  56.8480000 156.1960000  67.9330000  56.9110000 155.7650000
  64.7880000  66.4670000 161.4440000  64.0260000  66.0710000 161.0220000
  65.3400000  65.7240000 161.6880000  79.4090000  31.5660000 153.1170000
  79.3000000  31.0000000 152.3530000  79.9200000  31.0400000 153.7340000
  81.8430000  34.5260000 160.7460000  81.0240000  34.1810000 160.3910000
  81.6140000  35.3960000 161.0750000  42.5640000  89.0000000 126.1790000
  41.7080000  88.9900000 126.6060000  42.7110000  88.0920000 125.9140000
  43.5840000  44.7740000 163.2410000  44.2380000  44.2960000 163.7510000
  44.0380000  45.0140000 162.4330000  60.3710000  57.4720000 140.9030000
  61.1470000  58.0030000 141.0770000  59.6610000  58.1070000 140.8120000
  69.2320000  88.9600000 160.4830000  69.8520000  88.3270000 160.8450000
  69.4470000  89.0000000 159.5510000  55.7970000  82.4470000 146.8290000
  55.9840000  81.7110000 146.2470000  55.2630000  83.0410000 146.3000000
  87.1620000  31.0000000 129.3970000  86.7860000  31.8680000 129.2490000
  87.9740000  31.0000000 128.8880000  42.3920000  77.0920000 144.8000000
  42.1570000  77.0780000 143.8720000  43.2540000  76.6770000 144.8360000
  82.5060000  84.6790000 145.0340000  82.3690000  83.9400000 145.6270000
  83.4580000  84.7510000 144.9560000  50.4470000  58.6110000 164.0000000
  50.0580000  58.5040000 163.1320000  50.8380000  59.4840000 163.9820000
  78.5190000  52.6020000 158.7060000  77.9580000  51.8270000 158.7060000
  77.9090000  53.3390000 158.7390000  84.6530000  67.3940000 131.4240000
  83.7390000  67.4530000 131.1470000  84.7030000  67.9470000 132.2040000
  51.8930000  56.8590000 154.6640000  52.6360000  56.8250000 155.2670000
  51.1950000  56.3850000 155.1170000  32.1090000  37.8000000 155.6070000
  31.1570000  37.7070000 155.6010000  32.4380000  36.9020000 155.6550000
  59.2330000  50.8270000 147.0810000  59.9780000  51.4110000 146.9420000
  59.6110000  49.9470000 147.0600000  77.1550000  63.3640000 160.7280000
  76.3090000  63.3180000 161.1750000  77.1160000  62.6710000 160.0690000
  31.0140000  41.1330000 156.5180000  31.9170000  41.4080000 156.3610000
  31.0000000  40.2060000 156.2770000  87.3780000  63.9900000 128.4490000
  86.6470000  63.3740000 128.4750000  86.9650000  64.8510000 128.3820000
  31.0000000  32.5900000 127.6170000  31.1820000  33.1890000 126.8930000
  31.8300000  32.1380000 127.7690000  49.6210000  52.1690000 154.9880000
  49.7290000  51.2240000 155.0920000  50.0180000  52.3640000 154.1380000
  69.6000000  66.6490000 152.6510000  69.2970000  67.4900000 152.9930000
  70.5470000  66.7550000 152.5560000  83.4070000  78.6460000 151.3160000
  83.5560000  79.5850000 151.4180000  82.6850000  78.4510000 151.9140000
  74.9110000  33.2360000 129.4940000  74.3570000  33.6500000 130.1560000
  75.5200000  33.9250000 129.2270000  89.0000000  76.2530000 127.4960000
  88.9170000  75.7130000 128.2810000  88.1010000  76.3650000 127.1850000
  43.7960000  63.7510000 146.3890000  44.6860000  63.5520000 146.1000000
  43.7970000  64.6980000 146.5320000  31.5020000  44.1760000 143.7780000
  31.0000000  43.5080000 143.3120000  31.0000000  44.9830000 143.6540000
  56.4610000  49.8240000 140.9360000  55.9450000  50.5630000 140.6140000
  57.2200000  49.7890000 140.3530000  67.8990000  64.5940000 158.0340000
  68.7170000  64.0980000 158.0140000  67.2140000  63.9280000 157.9630000
  50.8450000  46.2420000 154.8500000  49.8920000  46.2990000 154.7940000
  51.1230000  46.0110000 153.9630000  39.6790000  65.0560000 133.6130000
  40.6110000  65.0620000 133.8330000  39.4960000  64.1480000 133.3720000
  53.2180000  61.3410000 149.8920000  53.5200000  60.6900000 149.2580000
  52.2640000  61.3260000 149.8150000  50.5380000  63.6400000 163.1500000
  50.7070000  64.1120000 163.9660000  50.2730000  64.3200000 162.5300000
  84.3220000  41.5180000 144.4560000  84.3870000  41.3500000 145.3960000
  84.4440000  40.6590000 144.0500000  59.1730000  85.9500000 126.4390000
  58.5920000  86.6860000 126.2500000  60.0470000  86.3390000 126.4810000
  52.6460000  61.9730000 160.9050000  52.9040000  61.0760000 160.6950000
  52.2760000  62.3140000 160.0900000  63.3640000  77.3870000 153.6440000
  63.4260000  77.5630000 152.7060000  64.2150000  77.6520000 153.9950000
  65.8330000  50.9730000 154.4740000  66.7560000  50.8950000 154.7120000
  65.7270000  50.3830000 153.7270000  31.0050000  88.4140000 157.8230000
  31.0000000  89.0000000 157.0660000  31.0510000  88.9990000 158.5790000
  63.9470000  59.0350000 142.4860000  63.2640000  58.3760000 142.3600000
  63.5240000  59.8640000 142.2600000  64.5910000  78.1100000 161.3330000
  65.2940000  77.5740000 161.7010000  63.8020000  77.8150000 161.7880000
  60.0370000  66.2220000 126.0990000  60.6450000  65.7030000 125.5720000
  59.1700000  65.9050000 125.8470000  76.3510000  45.6490000 161.8000000
  76.1850000  44.8710000 161.2670000  77.2370000  45.9200000 161.5590000
  42.4670000  88.0810000 161.7380000  42.7160000  89.0000000 161.6470000
  43.2990000  87.6090000 161.7820000  79.6720000  66.9050000 136.1860000
  80.1390000  67.3000000 135.4500000  79.4200000  67.6470000 136.7360000
  43.6380000  44.8060000 140.1650000  43.3330000  45.1170000 141.0170000
  44.4290000  44.3040000 140.3620000  54.5130000  45.8350000 153.0920000
  53.5840000  45.6300000 152.9870000  54.8180000  45.2290000 153.7680000
  78.5290000  33.2850000 157.4190000  78.8900000  33.5720000 156.5800000
  77.5870000  33.2140000 157.2630000  87.0220000  70.2940000 126.7370000
  87.2050000  69.3660000 126.8810000  87.5050000  70.7440000 127.4300000
  31.5850000  49.6650000 128.7910000  31.0000000  48.9260000 128.6240000
  31.0000000  50.4170000 128.8860000  86.1750000  77.5660000 135.1010000
  85.2740000  77.5290000 134.7780000  86.5440000  78.3480000 134.6900000
  77.9330000  46.3080000 142.8880000  77.2920000  46.8830000 142.4690000
  78.0840000  46.7030000 143.7470000  55.1760000  67.5210000 157.5050000
  54.7270000  68.0220000 158.1860000  54.4950000  67.3280000 156.8600000
  72.8280000  42.8450000 163.9500000  72.6320000  41.9090000 163.9320000
  73.7830000  42.8900000 164.0000000  65.9130000  73.5240000 145.0150000
  65.5620000  74.2610000 145.5150000  66.7690000  73.3530000 145.4090000
  59.5490000  86.4470000 161.1810000  59.9360000  85.7480000 161.7070000
  60.0770000  86.4680000 160.3830000  50.7830000  40.8070000 126.5260000
  50.7530000  39.8510000 126.5700000  50.1040000  41.0970000 127.1360000
  83.2450000  45.2770000 151.8660000  83.4170000  44.7110000 152.6180000
  82.3160000  45.5000000 151.9410000  57.5610000  71.0940000 137.6450000
  56.7270000  71.5470000 137.7660000  57.3190000  70.1770000 137.5120000
  53.4010000  57.3270000 159.8270000  53.1000000  56.8080000 159.0820000
  52.9270000  58.1550000 159.7510000  80.4690000  69.2380000 163.3030000
  80.0450000  69.8640000 163.8900000  81.0510000  68.7330000 163.8720000
  85.6770000  53.5850000 125.8400000  86.2630000  54.3150000 126.0390000
  86.0260000  52.8530000 126.3490000  31.1270000  58.7830000 145.8200000
  31.0230000  57.9120000 145.4370000  31.0000000  59.3840000 145.0850000
  40.5390000  63.2400000 159.0590000  39.8020000  63.5030000 159.6100000
  40.1530000  62.6560000 158.4050000  31.0150000  80.7080000 134.5940000
  31.0000000  81.6360000 134.3590000  31.9380000  80.5210000 134.7700000
  74.7590000  75.9870000 128.4790000  75.1030000  76.8730000 128.3660000
  75.5370000  75.4320000 128.5300000  61.5290000  64.5710000 158.5510000
  61.6430000  63.6830000 158.2130000  60.7830000  64.9200000 158.0620000
  85.9850000  37.0820000 143.3490000  86.1560000  37.8770000 142.8440000
  85.1960000  37.2820000 143.8520000  86.2790000  60.5680000 139.3680000
  86.0140000  60.6850000 140.2810000  86.3740000  59.6210000 139.2660000
  31.6530000  31.6920000 137.5440000  31.0000000  31.0110000 137.3850000
  31.1720000  32.3860000 137.9960000  31.0760000  81.4180000 154.6830000
  31.0000000  81.1080000 155.5850000  31.4390000  80.6730000 154.2030000
  45.5290000  45.6250000 154.3130000  46.0820000  45.8170000 155.0700000
  45.4800000  44.6690000 154.2890000  46.3560000  73.6080000 148.7040000
  45.4020000  73.6540000 148.7510000  46.5450000  73.4880000 147.7730000
  47.8260000  79.3120000 148.4880000  47.8400000  78.9850000 147.5890000
  46.9020000  79.4900000 148.6650000  53.2540000  71.4290000 155.3720000
  52.7380000  72.1520000 155.0150000  52.8010000  71.1870000 156.1800000
  75.5670000  85.0240000 129.5740000  76.4840000  84.8570000 129.3590000
  75.5730000  85.2320000 130.5090000  44.8100000  88.7370000 163.9930000
  43.8890000  89.0000000 164.0000000  44.7860000  87.7810000 163.9560000
  88.1170000  60.2980000 157.0450000  87.5570000  61.0470000 157.2480000
  88.4170000  59.9860000 157.8990000  67.7250000  76.0530000 139.9940000
  67.8180000  76.4360000 139.1210000  68.5690000  75.6350000 140.1640000
  58.6380000  46.9610000 156.7250000  59.0440000  46.0950000 156.7610000
  59.3750000  47.5710000 156.6920000  69.2180000  57.2500000 163.9970000
  68.3470000  56.8530000 163.9950000  69.8210000  56.5070000 164.0000000
  50.3080000  77.0530000 146.5910000  51.0030000  77.4490000 147.1160000
  49.5460000  77.0410000 147.1710000  41.3780000  32.5900000 156.8590000
  42.0990000  32.2740000 157.4040000  41.7600000  33.3010000 156.3440000
  87.3350000  86.0100000 158.4810000  86.7810000  86.5130000 159.0770000
  86.7270000  85.4330000 158.0180000  89.0000000  45.0440000 163.9980000
  88.1790000  45.5360000 164.0000000  88.8130000  44.2680000 163.4700000
  85.9460000  72.6650000 127.0720000  86.5160000  73.0420000 127.7410000
  86.1710000  73.1370000 126.2700000  52.7970000  64.4670000 151.1820000
  53.3000000  63.6930000 151.4370000  53.4480000  65.1670000 151.1220000
  38.3580000  73.1350000 151.6040000  38.0900000  74.0240000 151.8320000
  39.2870000  73.2130000 151.3870000  80.6530000  85.3380000 148.1940000
  81.1450000  84.6320000 148.6100000  80.8880000  86.1210000 148.6920000
  65.5740000  55.6630000 134.1850000  64.9950000  54.9030000 134.2300000
  65.0070000  56.3810000 133.9030000  31.0000000  40.7930000 142.1590000
  31.0620000  41.3500000 141.3840000  31.8740000  40.8270000 142.5500000
  47.9410000  83.8420000 134.8220000  47.5830000  84.7170000 134.9680000
  47.3810000  83.2640000 135.3410000  84.6570000  64.4890000 126.2810000
  85.3660000  64.0290000 125.8320000  84.9000000  65.4140000 126.2290000
  43.2260000  74.5010000 128.2280000  42.5580000  75.1430000 128.4670000
  43.8730000  75.0020000 127.7310000  63.4240000  39.5380000 137.2160000
  63.4880000  39.7150000 138.1540000  62.6340000  40.0020000 136.9380000
  43.2360000  47.5560000 139.5190000  43.1360000  47.0180000 138.7340000
  44.0560000  47.2570000 139.9130000  63.4840000  78.6570000 143.4990000
  63.5100000  78.7430000 144.4510000  62.5510000  78.6000000 143.2890000
  57.7980000  79.0370000 141.4940000  58.5420000  78.5490000 141.1420000
  58.1700000  79.8770000 141.7660000  56.4680000  82.8490000 124.3930000
  55.6850000  82.7470000 124.9330000  56.1690000  82.6750000 123.5000000
  75.3890000  52.7450000 147.7720000  74.5060000  52.6070000 147.4290000
  75.9650000  52.3520000 147.1170000  82.5980000  79.4680000 123.5000000
  83.2680000  78.7850000 123.5000000  83.0910000  80.2890000 123.5000000
  65.8780000  62.0530000 146.9360000  65.2200000  62.6240000 147.3330000
  66.6480000  62.1480000 147.4970000  63.0870000  77.0000000 150.1320000
  62.6730000  76.3180000 150.6610000  64.0270000  76.8500000 150.2410000
  75.9670000  47.0920000 140.3600000  76.5060000  47.8820000 140.3170000
  75.1460000  47.3390000 139.9340000  35.5050000  64.7560000 136.0270000
  34.6920000  65.2490000 135.9160000  36.1950000  65.3750000 135.7910000
  57.8170000  36.0860000 147.4890000  57.6160000  36.8530000 148.0250000
  58.3520000  36.4270000 146.7720000  52.2140000  39.2090000 135.8260000
  51.3050000  38.9310000 135.7120000  52.7020000  38.7080000 135.1730000
  41.4030000  59.3600000 159.6090000  40.7640000  59.0300000 158.9790000
  41.6220000  60.2370000 159.2920000  59.6180000  54.5650000 145.5130000
  59.0540000  55.2980000 145.7620000  59.9700000  54.2410000 146.3420000
  43.2730000  38.2820000 137.5840000  43.5570000  37.6740000 138.2660000
  44.0860000  38.6520000 137.2380000  70.7810000  59.9120000 158.2720000
  70.4760000  59.1510000 158.7650000  70.3470000  59.8380000 157.4220000
  69.2210000  31.8700000 138.0220000  69.6030000  31.7080000 138.8840000
  68.9870000  31.0000000 137.6960000  53.6970000  81.6910000 131.1750000
  52.8360000  82.1090000 131.1510000  53.5070000  80.7530000 131.2170000
  79.6340000  32.4690000 150.3030000  79.0310000  32.6750000 149.5880000
  80.4990000  32.4580000 149.8920000  56.0850000  49.0520000 154.8640000
  55.2930000  49.3970000 154.4510000  55.7760000  48.6440000 155.6730000
  56.4740000  62.4430000 130.8000000  56.3770000  63.3660000 131.0340000
  56.7830000  62.4570000 129.8940000  31.0000000  81.3990000 143.3610000
  31.0410000  81.6810000 144.2740000  31.2060000  82.1860000 142.8560000
  40.8210000  65.0410000 161.5190000  40.3720000  64.2930000 161.9130000
  41.6470000  64.6820000 161.1940000  46.6440000  69.5560000 153.6350000
  47.4130000  69.7170000 154.1800000  47.0000000  69.2610000 152.7970000
  39.2580000  81.6030000 141.7530000  40.1200000  82.0080000 141.6590000
  39.4430000  80.6740000 141.8920000  64.8970000  88.6600000 131.3890000
  63.9970000  88.7250000 131.0690000  65.3870000  88.2920000 130.6530000
  62.8060000  52.2680000 136.5130000  62.3330000  53.0480000 136.8040000
  62.1470000  51.5730000 136.5180000  66.6790000  64.4810000 146.5130000
  66.4880000  64.2480000 145.6040000  66.6880000  65.4380000 146.5180000
  38.5200000  59.9150000 126.5290000  38.0830000  60.6820000 126.1600000
  37.9850000  59.1740000 126.2440000  33.7430000  69.0700000 157.0640000
  33.5670000  68.1300000 157.0410000  34.6980000  69.1360000 157.0450000
  64.7990000  39.0290000 157.2370000  64.2110000  38.4070000 157.6640000
  64.5790000  38.9690000 156.3070000  66.7410000  71.7770000 143.4290000
  67.4860000  72.3410000 143.2250000  67.0770000  71.1610000 144.0810000
  57.0870000  61.7660000 163.3550000  57.0780000  61.0600000 164.0000000
  56.1660000  61.8900000 163.1210000  71.2350000  62.1360000 130.5380000
  71.0710000  61.8090000 131.4230000  72.1890000  62.1820000 130.4730000
  62.1780000  31.0000000 133.9210000  62.5740000  31.8710000 133.8980000
  61.2410000  31.1590000 133.8110000  55.0880000  45.5010000 163.7850000
  55.1290000  46.4330000 164.0000000  54.1690000  45.2650000 163.9150000
  59.0500000  79.6480000 163.9990000  58.9530000  80.5990000 163.9510000
  58.1540000  79.3130000 163.9750000  34.3100000  35.9410000 141.5440000
  33.9860000  36.4210000 142.3050000  34.4550000  36.6140000 140.8790000
  34.5370000  49.7580000 148.0700000  33.5990000  49.6820000 147.8970000
  34.7180000  50.6970000 148.0060000  81.0360000  53.7950000 158.6090000
  81.1520000  52.8520000 158.4950000  81.9040000  54.1650000 158.4410000
  52.7300000  49.7490000 155.8700000  52.8410000  49.0610000 156.5260000
  51.8650000  50.1170000 156.0520000  62.7660000  34.1250000 139.8350000
  62.7000000  34.8370000 140.4700000  61.8870000  33.7450000 139.8080000
  38.8410000  87.3540000 150.6640000  38.8480000  88.3110000 150.6770000
  39.7040000  87.1120000 150.3280000  79.0050000  47.6140000 134.9570000
  79.0220000  46.7400000 134.5670000  79.9030000  47.7600000 135.2570000
  59.4180000  78.1980000 156.7120000  59.0550000  79.0830000 156.7560000
  58.6530000  77.6230000 156.7330000  60.1940000  72.9030000 130.9240000
  59.5690000  73.2790000 131.5430000  60.6370000  73.6600000 130.5390000
  63.0180000  82.5400000 159.3430000  62.3550000  83.0990000 158.9390000
  63.8270000  83.0490000 159.2880000  77.5770000  51.4700000 150.9940000
  78.3850000  51.3870000 151.4990000  77.7860000  51.0870000 150.1420000
  68.2340000  39.8750000 163.4130000  68.2740000  40.6310000 163.9980000
  68.1970000  39.1190000 164.0000000  39.4780000  48.2040000 142.1200000
  40.0280000  47.4400000 142.2890000  39.2950000  48.5650000 142.9880000
  88.1030000  47.7140000 155.7420000  89.0000000  47.9140000 156.0100000
  87.6160000  48.5200000 155.9140000  85.7840000  84.8020000 142.9600000
  85.2240000  85.4770000 143.3430000  86.6710000  85.1520000 143.0380000
  58.1940000  70.9030000 155.6840000  58.2860000  69.9500000 155.6760000
  57.2480000  71.0530000 155.6620000  85.2520000  31.0000000 146.4410000
  84.6560000  31.1190000 145.7010000  86.1170000  31.2130000 146.0890000
  59.5010000  71.5900000 147.7650000  58.8630000  72.0640000 148.2980000
  59.0760000  71.4940000 146.9120000  69.9110000  43.8240000 156.4820000
  69.4800000  43.0160000 156.7610000  69.2000000  44.4610000 156.4040000
  47.8680000  67.4880000 123.5000000  47.0730000  67.2710000 123.9860000
  48.4140000  66.7040000 123.5700000  75.8060000  88.9280000 125.2510000
  75.4480000  88.9980000 124.3660000  75.0380000  88.8180000 125.8130000
  31.1180000  51.5150000 163.4760000  31.0000000  52.4150000 163.7820000
  31.8450000  51.1770000 164.0000000  54.9300000  71.2880000 142.8650000
  54.2660000  70.7850000 142.3940000  55.7610000  71.0050000 142.4820000
  88.5670000  31.0000000 139.0950000  87.6320000  31.0000000 138.8900000
  89.0000000  31.0360000 138.2420000  68.2820000  62.6510000 126.0170000
  69.2170000  62.4430000 126.0310000  68.2470000  63.6050000 126.0940000
  52.8290000  40.3300000 140.9390000  51.9330000  40.2170000 141.2570000
  53.1430000  41.1190000 141.3810000  61.8920000  55.3010000 135.5120000
  62.2120000  56.1430000 135.8360000  62.6650000  54.8790000 135.1350000
  34.1530000  38.8580000 142.8350000  33.9560000  39.5180000 143.5000000
  34.9950000  39.1320000 142.4680000  48.2770000  39.9910000 134.4520000
  48.5290000  39.7730000 133.5550000  48.9590000  39.5970000 134.9960000
  82.4600000  39.9040000 133.3330000  81.5100000  39.8080000 133.2680000
  82.7510000  39.1070000 133.7770000  77.1040000  86.0610000 156.5190000
  77.4930000  86.2720000 155.6710000  76.2630000  86.5190000 156.5180000
  42.5090000  54.9210000 126.1870000  41.8910000  55.5500000 125.8160000
  42.4560000  55.0610000 127.1330000  75.5830000  52.8300000 152.1900000
  74.8420000  53.4210000 152.3160000  76.3120000  53.4040000 151.9540000
  43.6360000  43.7620000 131.5950000  43.9180000  42.8810000 131.8400000
  44.4510000  44.2340000 131.4200000  82.7770000  48.6940000 130.6080000
  83.5290000  48.3840000 130.1030000  82.1930000  47.9360000 130.6580000
  34.1290000  43.4550000 123.5480000  34.5460000  44.3160000 123.5480000
  33.1900000  43.6430000 123.5510000  56.0740000  34.2010000 128.1250000
  55.8760000  35.1280000 128.2580000  55.2180000  33.7880000 128.0040000
  38.4330000  38.2080000 123.5000000  39.3570000  37.9660000 123.5690000
  38.4320000  39.1640000 123.5450000  79.6150000  61.9960000 130.7690000
  79.9280000  61.2240000 130.2970000  78.6680000  61.8680000 130.8370000
  88.9630000  79.1160000 162.6580000  89.0000000  80.0190000 162.3430000
  88.1240000  78.7840000 162.3370000  31.0910000  68.7030000 138.8980000
  31.9800000  68.4220000 139.1150000  31.0000000  69.5590000 139.3180000
  67.3670000  83.4360000 157.7550000  67.9910000  82.9220000 158.2660000
  67.9120000  83.9650000 157.1720000  79.7750000  66.4010000 150.8880000
  80.0280000  65.5640000 150.4980000  80.6020000  66.7980000 151.1610000
  79.6870000  31.0470000 159.7890000  79.9020000  31.9370000 159.5090000
  78.7330000  31.0000000 159.7270000  74.0650000  31.4070000 150.9390000
  74.2170000  32.3000000 151.2450000  74.9310000  30.9990000 150.9480000
  32.8720000  82.3130000 158.7770000  32.8300000  81.4770000 158.3130000
  33.4950000  82.1610000 159.4890000  82.8000000  35.7120000 123.5160000
  82.9040000  34.7640000 123.5930000  83.6960000  36.0510000 123.5000000
  88.6270000  37.6890000 155.4610000  87.9420000  38.0160000 154.8790000
  89.0000000  38.4770000 155.8580000  31.5000000  39.7270000 149.3230000
  31.0000000  39.2560000 149.9890000  31.0000000  39.6040000 148.5150000
  50.5420000  32.6800000 163.9240000  51.4080000  33.0800000 164.0000000
  50.7190000  31.7500000 163.7780000  65.8130000  47.1230000 127.0180000
  65.7620000  47.5070000 126.1430000  66.0030000  47.8640000 127.5950000
  48.1410000  67.0600000 150.0750000  47.9340000  67.1100000 151.0080000
  47.3190000  67.2790000 149.6350000  83.0890000  31.5730000 159.7730000
  82.8690000  32.4370000 159.4250000  82.3900000  31.0010000 159.4560000
  68.3080000  31.2190000 126.4400000  69.0890000  31.0000000 125.9320000
  68.4910000  32.0880000 126.7990000  83.1780000  47.8350000 161.7100000
  83.9790000  47.4760000 162.0910000  83.1900000  47.5350000 160.8010000
  65.2800000  76.3080000 133.7340000  64.8250000  76.0840000 134.5450000
  66.1420000  76.6140000 134.0180000  63.7020000  62.6250000 137.5620000
  63.2380000  62.9420000 136.7870000  63.0300000  62.1820000 138.0800000
  41.0240000  42.5380000 135.9930000  40.5500000  41.9700000 136.6010000
  41.6250000  41.9510000 135.5350000  51.7820000  69.6410000 158.3600000
  51.3060000  69.4730000 159.1730000  51.1410000  70.0660000 157.7900000
  60.1970000  87.0030000 163.9830000  60.8430000  86.2970000 163.9710000
  59.3510000  86.5540000 164.0000000  65.2780000  45.1040000 147.2920000
  65.9810000  45.7380000 147.1520000  65.4400000  44.7550000 148.1690000
  72.2550000  42.9160000 154.3020000  71.7830000  43.3900000 153.6180000
  72.5740000  42.1240000 153.8680000  48.6990000  89.0000000 142.9940000
  48.2390000  88.9270000 143.8310000  49.6260000  88.9370000 143.2240000
  36.4140000  70.5950000 155.3620000  36.8000000  70.0630000 156.0570000
  36.5710000  71.4990000 155.6370000  65.1300000  59.7290000 155.4190000
  64.4910000  59.5520000 156.1090000  65.6410000  58.9230000 155.3520000
  78.6100000  56.0990000 150.9890000  78.2690000  56.9660000 151.2080000
  78.7080000  56.1120000 150.0370000  63.1560000  58.0480000 154.4440000
  63.6330000  57.2320000 154.2920000  63.5310000  58.6660000 153.8160000
  76.0860000  81.3130000 164.0000000  77.0370000  81.2140000 164.0000000
  75.7510000  80.4160000 164.0000000  81.3120000  58.1160000 128.4840000
  81.1700000  58.9300000 128.9670000  82.1340000  58.2570000 128.0130000
  31.9350000  48.3650000 145.7540000  32.2050000  49.2170000 145.4120000
  31.0000000  48.4640000 145.9350000  47.9870000  71.8000000 155.6640000
  47.1050000  71.5580000 155.9440000  47.8640000  72.2100000 154.8080000
  80.9260000  70.4520000 147.6510000  80.2490000  70.9130000 147.1570000
  80.9720000  70.9170000 148.4870000  39.5800000  33.8110000 145.5320000
  39.5320000  34.3200000 144.7230000  40.2360000  33.1360000 145.3520000
  88.0560000  34.9340000 160.7930000  87.7660000  34.0410000 160.6070000
  89.0000000  34.9180000 160.6330000  49.5290000  71.1780000 129.5880000
  49.6210000  72.1030000 129.8190000  50.3570000  70.7800000 129.8590000
  72.9890000  85.2100000 145.5120000  72.1330000  85.4550000 145.8630000
  73.5950000  85.3500000 146.2400000  51.8190000  47.9150000 145.3470000
  52.2800000  48.6810000 145.6880000  52.5140000  47.2920000 145.1330000
  77.7780000  81.9040000 160.0420000  77.6320000  82.8490000 160.0290000
  76.8990000  81.5250000 160.0430000  47.0330000  51.8480000 133.7870000
  47.0050000  52.3980000 133.0050000  46.8870000  50.9590000 133.4610000
  73.6470000  81.8010000 126.7430000  73.2320000  82.6540000 126.6160000
  74.2580000  81.7190000 126.0090000  88.6980000  35.6240000 137.5620000
  89.0000000  35.1350000 136.7970000  88.9870000  36.5230000 137.4030000
  48.6600000  43.5210000 146.3540000  49.5170000  43.6980000 145.9670000
  48.7390000  42.6390000 146.7180000  34.3640000  45.4820000 137.3720000
  34.9360000  46.0650000 137.8700000  33.5190000  45.5360000 137.8190000
  70.9750000  80.1860000 147.9090000  70.7270000  79.4740000 148.4990000
  70.9390000  79.7960000 147.0350000  54.1660000  65.6800000 143.9570000
  54.9830000  65.1820000 143.9650000  54.3100000  66.3660000 143.3060000
  62.0290000  67.9940000 152.1170000  61.2030000  68.0160000 151.6340000
  62.1400000  67.0750000 152.3610000  67.9040000  62.1240000 132.2580000
  67.7890000  61.8540000 133.1690000  68.5650000  61.5250000 131.9110000
  70.9810000  33.4950000 136.3620000  70.6220000  34.2540000 135.9020000
  71.8920000  33.7300000 136.5390000  42.4690000  87.7260000 155.4150000
  41.9680000  86.9830000 155.7510000  43.3370000  87.6260000 155.8050000
  68.2720000  69.1970000 148.8970000  67.5930000  68.8990000 148.2920000
  67.8090000  69.7600000 149.5190000  37.2200000  74.6200000 123.9620000
  36.4940000  74.4710000 124.5670000  36.9860000  75.4250000 123.5000000
  31.3590000  45.8500000 163.1160000  31.0660000  45.6280000 164.0000000
  32.2620000  46.1460000 163.2300000  86.0830000  42.9920000 139.7090000
  85.2720000  43.2030000 140.1720000  86.6520000  42.6150000 140.3810000
  42.6070000  32.8830000 125.9440000  42.2100000  32.6220000 125.1130000
  43.3300000  33.4600000 125.6940000  88.9540000  47.5580000 150.6700000
  88.0480000  47.4100000 150.9390000  89.0000000  48.4960000 150.4840000
  78.3630000  56.5280000 143.6860000  78.7650000  57.3510000 143.9670000
  79.0950000  55.9130000 143.6240000  81.0120000  51.9910000 163.4560000
  81.5950000  52.7170000 163.2340000  81.5470000  51.4120000 164.0000000
  38.3620000  45.6550000 147.1800000  38.5460000  45.3250000 146.3000000
  38.3100000  44.8700000 147.7250000  66.5670000  71.3730000 163.9300000
  66.5620000  70.4190000 164.0000000  67.4120000  71.5800000 163.5280000
  86.0410000  47.1400000 164.0000000  85.6480000  48.0120000 164.0000000
  85.2950000  46.5400000 164.0000000  50.1650000  35.6590000 148.8670000
  49.6160000  36.3230000 148.4500000  49.7490000  35.5020000 149.7150000
  54.9420000  39.6050000 161.6660000  54.2010000  40.1840000 161.8420000
  55.6500000  40.1930000 161.4040000  45.0940000  53.4310000 163.9840000
  44.4110000  52.7610000 164.0000000  44.6160000  54.2610000 163.9850000
  62.2770000  77.0720000 123.5360000  63.0310000  76.4840000 123.5770000
  62.6580000  77.9500000 123.5000000  86.3790000  47.2080000 123.5150000
  85.4810000  46.8770000 123.5000000  86.9220000  46.4240000 123.6050000
  80.2060000  62.2960000 152.7950000  81.0690000  62.3910000 152.3930000
  79.9250000  61.4120000 152.5560000  65.7940000  61.0290000 142.8740000
  66.3000000  60.2170000 142.8540000  65.3740000  61.0290000 143.7340000
  81.1460000  79.9330000 135.1770000  81.0820000  79.3040000 135.8940000
  80.3030000  79.8710000 134.7260000  31.0840000  38.3860000 124.8400000
  31.0000000  38.7480000 123.9590000  31.0090000  39.1440000 125.4200000
  42.1700000  85.8950000 163.4680000  42.0640000  86.6840000 164.0000000
  41.7030000  85.2140000 163.9530000  50.1890000  34.5880000 137.5170000
  51.0620000  34.2140000 137.3940000  49.6080000  33.8280000 137.5670000
  71.0510000  81.5770000 134.6880000  70.9690000  80.6660000 134.9680000
  71.9340000  81.8330000 134.9570000  64.3990000  68.4880000 163.9980000
  63.6280000  67.9210000 164.0000000  65.1380000  67.8860000 163.8970000
  87.2370000  72.6370000 123.6120000  86.5520000  73.2780000 123.8040000
  88.0310000  73.1610000 123.5000000  82.2310000  55.1150000 147.8170000
  83.0300000  54.7260000 147.4620000  81.9210000  55.7000000 147.1250000
  44.5180000  36.6250000 157.8330000  43.8640000  36.5090000 158.5220000
  45.3150000  36.2320000 158.1910000  69.8430000  37.4140000 138.7320000
  69.6900000  38.1190000 138.1030000  70.7890000  37.4270000 138.8810000
  65.8490000  86.3130000 123.9450000  66.3410000  85.5320000 123.6910000
  66.2960000  87.0340000 123.5000000  56.3700000  78.0850000 123.5190000
  56.0830000  78.9980000 123.5000000  57.3260000  78.1340000 123.5290000
  62.7200000  79.5520000 149.3310000  62.4500000  80.4380000 149.5710000
  63.5600000  79.4290000 149.7750000  50.0630000  64.2480000 160.0290000
  50.7350000  64.1410000 159.3570000  49.2350000  64.1530000 159.5570000
  86.6020000  52.1700000 143.1920000  86.4060000  51.9030000 142.2940000
  86.1730000  53.0210000 143.2880000  84.4460000  76.0410000 152.7280000
  84.2900000  75.0980000 152.6830000  84.5660000  76.2210000 153.6610000
  86.1220000  45.9060000 135.4340000  86.6090000  45.9600000 136.2560000
  86.6900000  46.3280000 134.7900000  65.9550000  58.8860000 160.9000000
  66.2680000  59.5760000 161.4860000  65.0150000  59.0480000 160.8200000
  86.3680000  36.8180000 135.3150000  86.5190000  36.3700000 134.4830000
  86.9720000  36.3980000 135.9270000  78.3730000  58.9120000 161.5790000
  78.9160000  58.1250000 161.5560000  77.6120000  58.6640000 162.1050000
  84.2940000  41.3250000 141.5500000  84.0190000  40.9490000 140.7140000
  83.5090000  41.7540000 141.8910000  33.6110000  51.5430000 150.8310000
  33.2670000  52.1440000 151.4920000  33.5830000  52.0430000 150.0150000
  59.1620000  45.7040000 148.8840000  60.0670000  45.4030000 148.9590000
  59.0230000  46.2420000 149.6640000  42.9100000  67.2220000 131.8000000
  43.5830000  67.8360000 132.0920000  42.1080000  67.5230000 132.2270000
  70.5210000  31.9020000 163.9620000  70.6540000  31.5460000 163.0840000
  70.1570000  32.7760000 163.8140000  79.0250000  51.5610000 147.6970000
  79.0040000  52.5160000 147.7630000  79.6420000  51.2860000 148.3750000
  40.1170000  54.4090000 127.7240000  39.4890000  55.0680000 127.4290000
  39.5840000  53.6350000 127.9080000  75.2080000  45.8040000 143.4900000
  75.8660000  45.3070000 143.9750000  75.0890000  45.3150000 142.6760000
  82.1460000  83.6010000 127.1630000  82.1200000  83.0810000 127.9660000
  81.2850000  84.0150000 127.1160000  80.8020000  73.3770000 127.9550000
  81.2470000  73.9510000 127.3310000  80.2180000  73.9580000 128.4430000
  38.1270000  65.5990000 161.2730000  37.4890000  66.2570000 161.5470000
  37.8880000  64.8130000 161.7650000  66.3720000  69.5290000 124.6630000
  65.6540000  70.1590000 124.6060000  66.2260000  69.0730000 125.4920000
  31.0270000  83.9990000 158.0160000  31.7750000  84.5460000 157.7790000
  31.0000000  83.3210000 157.3400000  88.9930000  35.2300000 153.1300000
  88.5570000  35.5130000 152.3270000  88.6510000  35.8150000 153.8070000
  85.5060000  32.5390000 140.9720000  86.1660000  33.2320000 140.9350000
  85.7840000  31.9080000 140.3070000  70.2580000  85.6310000 139.5580000
  70.3760000  86.0810000 140.3950000  71.0720000  85.7960000 139.0810000
  88.7630000  41.4690000 132.5180000  88.1200000  42.1700000 132.6250000
  89.0000000  41.5010000 131.5900000  53.8230000  64.4660000 148.7480000
  52.9140000  64.1760000 148.6660000  54.2790000  63.7190000 149.1370000
  49.2490000  68.1570000 127.8960000  48.8000000  67.5010000 128.4300000
  48.8570000  68.9900000 128.1590000  64.8730000  51.5270000 123.5000000
  65.5260000  50.8270000 123.5000000  64.0310000  51.0700000 123.5000000
  46.6720000  32.1540000 130.2830000  47.0890000  31.3000000 130.1660000
  47.3970000  32.7790000 130.2630000  89.0000000  35.7320000 132.9010000
  88.8990000  35.9950000 133.8160000  88.9460000  34.7760000 132.9190000
  88.8250000  39.7880000 142.2750000  88.3140000  38.9820000 142.2000000
  89.0000000  40.0470000 141.3700000  38.0270000  45.5030000 123.5070000
  38.2710000  46.4280000 123.5000000  37.0700000  45.5070000 123.5090000
  37.1970000  60.7160000 135.6450000  36.8300000  61.0870000 136.4470000
  38.0340000  61.1670000 135.5330000  64.0020000  74.2340000 148.4900000
  64.2600000  75.1530000 148.4200000  64.2250000  73.8570000 147.6380000
  43.2080000  73.2400000 136.4650000  43.9280000  73.3170000 135.8390000
  43.1760000  74.0920000 136.9000000  81.3830000  44.2440000 155.1230000
  81.3400000  45.1440000 154.8010000  82.2440000  43.9310000 154.8470000
  88.3070000  76.3250000 142.1660000  88.4940000  76.1680000 141.2410000
  89.0000000  75.8590000 142.6340000  88.5310000  54.5610000 133.6530000
  89.0000000  54.2120000 132.8950000  88.9990000  54.2070000 134.4090000
  50.1090000  56.2540000 138.9350000  49.3430000  56.7980000 139.1160000
  50.7420000  56.8550000 138.5400000  85.3010000  60.0400000 149.4410000
  84.7860000  59.2350000 149.4790000  86.1300000  59.7760000 149.0410000
  37.0570000  85.7130000 160.1260000  37.3620000  85.5500000 161.0180000
  37.6590000  86.3740000 159.7830000  78.1130000  68.3610000 140.7310000
  78.6500000  67.7060000 141.1770000  78.2350000  68.1780000 139.7990000
  88.9980000  78.8190000 125.2890000  89.0000000  78.5440000 126.2050000
  88.9750000  79.7750000 125.3240000  86.0870000  58.2470000 128.4160000
  86.1270000  57.3540000 128.0750000  85.2560000  58.5930000 128.0890000
  46.4870000  33.9250000 132.5620000  46.9930000  33.1250000 132.7050000
  45.5820000  33.6740000 132.7470000  79.1360000  42.0220000 146.9110000
  78.7560000  41.8020000 146.0610000  79.5830000  42.8560000 146.7650000
  60.3420000  46.7730000 124.0650000  60.7790000  47.4090000 123.5000000
  59.6900000  46.3570000 123.5000000  39.5560000  50.0470000 163.9960000
  38.7310000  49.5630000 164.0000000  40.2330000  49.3690000 163.9930000
  76.9550000  68.8280000 143.0960000  76.7140000  67.9050000 143.0140000
  76.3680000  69.1710000 143.7690000  33.9390000  72.3120000 163.2600000
  33.5160000  72.7460000 164.0000000  34.7350000  72.8210000 163.1040000
  53.3710000  38.9240000 164.0000000  54.2450000  38.5350000 163.9860000
  52.7750000  38.1760000 163.9430000  58.8290000  86.7000000 136.3470000
  59.7280000  86.3740000 136.3020000  58.2920000  85.9120000 136.4360000
  31.2170000  59.0250000 133.8210000  31.0110000  59.0230000 134.7550000
  31.0000000  59.9110000 133.5290000  64.6270000  69.0310000 132.5840000
  65.3230000  68.5790000 133.0590000  63.8270000  68.5630000 132.8260000
  50.3040000  58.2820000 130.6980000  49.9130000  58.2400000 129.8260000
  50.9940000  57.6180000 130.6830000  39.3430000  80.1860000 159.0450000
  38.8580000  80.9930000 159.2190000  40.2630000  80.4330000 159.1470000
  48.0590000  60.7350000 123.8020000  47.2010000  60.3730000 123.5810000
  48.0210000  61.6430000 123.5000000  36.6680000  82.2920000 137.7150000
  35.7730000  82.5260000 137.9610000  36.6770000  81.3350000 137.7250000
  52.6400000  62.4480000 163.8950000  52.5740000  61.4990000 163.9970000
  53.5740000  62.6360000 164.0000000  66.8150000  86.4630000 161.1270000
  67.1250000  87.1520000 160.5390000  67.6140000  86.0840000 161.4950000
  55.4090000  87.2970000 147.6290000  55.7030000  88.1780000 147.3960000
  55.8790000  87.0940000 148.4380000  66.6210000  74.1700000 162.5000000
  66.8030000  74.0800000 163.4350000  66.1850000  73.3510000 162.2610000
  48.9420000  35.9740000 145.0090000  48.6250000  36.2620000 145.8650000
  48.6430000  36.6510000 144.4020000  41.9510000  56.5730000 148.7190000
  41.2580000  55.9200000 148.8150000  41.6160000  57.3480000 149.1700000
  73.8070000  43.8340000 161.5200000  74.1410000  42.9370000 161.5260000
  72.8540000  43.7350000 161.5150000  42.8000000  84.7840000 160.8840000
  42.5650000  84.1660000 160.1920000  42.9020000  84.2400000 161.6660000
  42.7640000  44.0510000 137.0660000  42.5590000  43.6580000 137.9140000
  42.5840000  44.9840000 137.1840000  78.1520000  51.7290000 124.4470000
  78.8950000  52.2090000 124.8110000  78.2310000  51.8450000 123.5000000
  57.2890000  48.9030000 129.1980000  57.8670000  49.5080000 129.6620000
  56.5870000  49.4570000 128.8560000  31.4590000  67.5760000 123.5000000
  31.0000000  66.7370000 123.5000000  32.3880000  67.3420000 123.5000000
  59.6660000  58.7210000 163.9800000  59.2800000  58.3940000 163.1680000
  60.5440000  58.3390000 164.0000000  44.2680000  38.3490000 146.3020000
  44.1630000  39.2660000 146.5550000  44.4890000  38.3810000 145.3710000
  69.2000000  73.4770000 163.0600000  69.3140000  74.3350000 162.6520000
  69.2710000  73.6480000 164.0000000  36.6260000  85.6240000 143.1850000
  37.2930000  85.4540000 143.8500000  36.7560000  86.5410000 142.9440000
  88.4520000  50.9060000 150.8860000  88.2890000  50.5510000 151.7600000
  87.6960000  51.4670000 150.7100000  81.6650000  37.9670000 158.9110000
  81.2610000  37.5390000 159.6660000  82.0640000  38.7600000 159.2710000
  76.0780000  64.7670000 158.7180000  75.5680000  64.0340000 158.3720000
  75.4270000  65.3470000 159.1140000  67.3540000  47.8710000 123.5000000
  66.9160000  48.6650000 123.8030000  67.5360000  47.3760000 124.3000000
  54.1420000  49.8920000 129.9520000  54.1140000  50.7680000 129.5670000
  54.8530000  49.9340000 130.5920000  70.7300000  74.7390000 123.5000000
  69.7880000  74.9020000 123.5320000  71.0230000  74.8480000 124.4050000
  84.2720000  89.0000000 163.0200000  84.3020000  88.9950000 163.9770000
  83.3390000  88.9670000 162.8090000  78.7640000  53.0400000 161.1550000
  78.3420000  52.2340000 161.4510000  78.0760000  53.7040000 161.2060000
  61.1420000  33.8570000 134.4030000  60.2950000  33.4740000 134.6280000
  60.9330000  34.5610000 133.7890000  53.6130000  39.7970000 125.9050000
  53.8850000  39.6210000 126.8050000  52.9780000  39.1080000 125.7070000
  68.4460000  33.6910000 156.8660000  67.6520000  33.5430000 156.3530000
  68.9340000  34.3490000 156.3690000  73.9200000  74.4020000 130.9150000
  73.8520000  75.3350000 130.7160000  74.0180000  73.9810000 130.0600000
  75.9130000  44.4960000 138.5920000  75.2190000  44.2540000 139.2050000
  76.6980000  44.5660000 139.1350000  76.4350000  49.1020000 147.8670000
  76.3860000  49.5460000 148.7140000  77.1430000  48.4660000 147.9710000
  60.6630000  76.0250000 152.5430000  60.9460000  75.8890000 153.4470000
  60.7430000  75.1630000 152.1340000  54.3580000  42.6840000 152.3390000
  54.1430000  41.7540000 152.2640000  55.3140000  42.7060000 152.3850000
  86.0860000  68.2500000 141.7170000  86.1570000  68.3860000 142.6620000
  85.5340000  67.4720000 141.6270000  34.2030000  73.7550000 139.2720000
  34.9750000  73.8640000 138.7160000  34.0620000  72.8080000 139.3030000
  62.4630000  77.7440000 158.4720000  63.3700000  77.6800000 158.1720000
  62.5100000  77.5880000 159.4150000  72.5660000  76.4340000 125.9380000
  71.7300000  76.7150000 126.3110000  73.2260000  76.9060000 126.4470000
  55.7880000  50.6950000 126.6440000  56.6930000  50.4040000 126.5350000
  55.8240000  51.3270000 127.3630000  74.9620000  88.1290000 134.5580000
  74.0840000  88.2960000 134.9020000  75.3280000  89.0000000 134.4040000
  86.1650000  54.8740000 132.2830000  86.1960000  55.8270000 132.3710000
  86.7350000  54.6830000 131.5380000  41.6420000  36.6890000 129.6640000
  42.5540000  36.4420000 129.8130000  41.3870000  36.2060000 128.8780000
  78.6730000  73.3350000 126.4870000  79.0990000  74.0710000 126.0490000
  78.4630000  72.7240000 125.7800000  46.6060000  80.5380000 145.2330000
  45.8070000  81.0650000 145.2260000  46.3680000  79.7470000 145.7180000
  81.6750000  72.0040000 160.5890000  81.4730000  71.4590000 159.8290000
  81.8560000  71.3800000 161.2920000  31.8120000  59.7250000 149.7610000
  31.0000000  60.1330000 149.4620000  32.4860000  60.0780000 149.1800000
  68.4140000  66.9480000 158.7790000  68.9400000  67.6820000 159.0980000
  68.4110000  67.0510000 157.8270000  46.9440000  54.5570000 162.7340000
  46.3950000  54.2590000 162.0090000  46.6730000  55.4630000 162.8840000
  63.1200000  46.2060000 151.8920000  62.6900000  45.7180000 151.1900000
  62.5430000  46.0960000 152.6490000  67.3520000  72.2200000 153.3300000
  68.0460000  72.4630000 153.9410000  66.9410000  71.4510000 153.7260000
  33.8160000  34.0020000 149.3030000  33.4560000  33.1530000 149.0470000
  34.2150000  33.8460000 150.1580000  48.9360000  73.0110000 145.2590000
  48.5500000  73.7620000 145.7090000  49.4680000  73.3950000 144.5620000
  53.8720000  64.8020000 158.5090000  53.2750000  64.7560000 157.7620000
  53.3980000  64.3720000 159.2220000  76.2200000  61.8170000 123.5000000
  76.0800000  62.4960000 124.1590000  77.1660000  61.6710000 123.5040000
  80.0440000  50.2420000 135.5270000  79.3360000  50.3300000 134.8890000
  80.8330000  50.1350000 134.9960000  37.9130000  80.4620000 156.1370000
  37.6920000  81.3820000 156.2810000  37.0820000  79.9970000 156.2380000
  58.4190000  47.9200000 163.8440000  58.3080000  47.9600000 162.8950000
  59.2910000  48.2840000 164.0000000  80.9890000  66.8640000 127.6510000
  80.1910000  67.3920000 127.6350000  81.4100000  67.0400000 126.8090000
  65.2720000  58.3470000 145.1690000  65.3420000  59.0930000 145.7650000
  64.3580000  58.0720000 145.2350000  71.3540000  72.2740000 161.6960000
  72.0970000  71.6720000 161.7220000  71.6780000  73.0740000 162.1110000
  40.3740000  75.5650000 142.4720000  39.6660000  75.9220000 143.0080000
  40.7260000  74.8410000 142.9910000  31.0000000  50.9450000 147.8730000
  31.0790000  50.1690000 148.4280000  31.0710000  51.6820000 148.4800000
  64.8530000  41.3590000 123.9650000  64.1880000  40.8520000 123.5000000
  65.6690000  41.1670000 123.5020000  73.2620000  74.2940000 163.9420000
  73.2950000  73.3390000 164.0000000  74.1770000  74.5600000 163.8460000
  81.2050000  78.7820000 154.8730000  80.4500000  79.0540000 154.3520000
  81.7880000  78.3530000 154.2460000  76.7410000  66.4730000 152.2150000
  77.2640000  66.5210000 151.4160000  76.2390000  65.6620000 152.1250000
  58.0900000  71.1040000 126.1850000  57.5990000  71.8430000 125.8270000
  58.8840000  71.4970000 126.5480000  77.3240000  72.0460000 133.4360000
  77.4440000  72.6300000 132.6880000  76.3760000  72.0220000 133.5720000
  85.8540000  57.5380000 151.3090000  85.3330000  57.9680000 151.9870000
  86.5780000  58.1420000 151.1430000  31.1920000  60.7950000 137.9010000
  32.1370000  60.7910000 138.0470000  31.0000000  61.6820000 137.5950000
  59.3600000  88.8140000 137.5720000  59.8380000  89.0000000 136.7630000
  59.9890000  89.0000000 138.2700000  35.9290000  44.0720000 159.6640000
  36.3640000  43.5880000 158.9610000  35.9760000  43.4880000 160.4210000
  61.0600000  32.7780000 125.8000000  60.8300000  33.6000000 126.2340000
  62.0170000  32.7730000 125.7880000  59.8000000  58.8120000 146.8980000
  59.5010000  57.9050000 146.8330000  60.1750000  58.8790000 147.7770000
  45.8630000  53.2050000 154.2780000  45.4240000  52.3680000 154.4270000
  45.3100000  53.6560000 153.6410000  52.8620000  78.6420000 142.1940000
  53.5970000  79.0560000 142.6450000  53.0750000  77.7080000 142.1950000
  57.1160000  88.4140000 155.1230000  57.5350000  89.0000000 154.4930000
  56.7010000  89.0000000 155.7570000  37.6890000  85.1180000 140.8890000
  36.8900000  85.5480000 140.5840000  37.7070000  84.2850000 140.4170000
  58.0220000  75.6850000 161.0080000  57.9850000  74.9100000 160.4470000
  58.7520000  75.5140000 161.6040000  67.0350000  76.1220000 154.6710000
  67.7500000  75.4860000 154.6350000  67.4670000  76.9730000 154.5830000
  72.2210000  80.8970000 131.0530000  72.6240000  81.3810000 131.7740000
  71.2990000  81.1510000 131.0800000  85.7660000  80.7950000 146.2590000
  86.3260000  80.0500000 146.4780000  86.2340000  81.5560000 146.6030000
  33.7450000  57.0920000 161.7480000  34.5020000  57.6770000 161.7330000
  32.9880000  57.6780000 161.7570000  78.3610000  68.5640000 148.0460000
  78.5750000  69.2860000 148.6370000  77.6720000  68.9130000 147.4800000
  82.4770000  31.0000000 149.4350000  82.5200000  31.0320000 148.4790000
  82.9980000  31.7500000 149.7240000  86.1550000  50.1990000 123.8880000
  85.2830000  50.2640000 123.5000000  86.2430000  50.9930000 124.4160000
  63.7500000  88.4150000 128.4450000  64.5070000  89.0000000 128.4230000
  62.9940000  89.0000000 128.3860000  84.5190000  67.8130000 125.6370000
  83.9430000  68.5320000 125.8960000  85.2720000  67.8860000 126.2240000
  86.2870000  35.8320000 145.9030000  85.4090000  35.8310000 146.2830000
  86.6030000  36.7270000 146.0280000  66.4840000  56.1600000 153.6740000
  65.6000000  55.8520000 153.4780000  66.3890000  57.1050000 153.7940000
  37.4090000  87.2300000 130.0800000  36.5130000  86.9590000 130.2760000
  37.6470000  86.7280000 129.2990000  45.1120000  56.1190000 154.2460000
  45.9940000  55.9990000 154.5970000  44.5390000  55.6870000 154.8800000
  34.3270000  66.0620000 149.8540000  34.6480000  66.4180000 150.6820000
  34.0220000  66.8280000 149.3660000  32.6110000  37.6620000 134.4060000
  32.5220000  37.3760000 133.4970000  32.1570000  36.9900000 134.9150000
  56.6290000  64.8930000 150.2480000  56.6690000  64.4530000 149.3990000
  55.8040000  65.3780000 150.2280000  35.7980000  44.5340000 152.9810000
  36.5610000  44.2850000 153.5020000  35.1710000  44.8750000 153.6190000
  65.9550000  60.7580000 149.4730000  65.5540000  59.8890000 149.4630000
  65.5570000  61.1960000 150.2260000  55.0270000  79.5020000 149.7860000
  55.5210000  79.4460000 150.6030000  55.2700000  80.3520000 149.4160000
  45.2730000  47.3160000 148.9900000  45.0660000  47.3610000 148.0570000
  45.9130000  48.0140000 149.1280000  78.2850000  62.2380000 125.9040000
  79.2140000  62.2930000 125.6780000  77.9980000  63.1490000 125.9630000
  76.3370000  88.5450000 163.4970000  76.3570000  89.0000000 162.6550000
  75.6620000  89.0000000 164.0000000  83.8140000  82.1630000 125.4770000
  84.3430000  82.9220000 125.7230000  84.1430000  81.4520000 126.0270000
  44.0690000  36.5670000 162.0750000  43.4820000  37.1780000 161.6310000
  44.9220000  37.0010000 162.0640000  72.5320000  65.4080000 157.2720000
  73.2820000  65.2180000 157.8350000  72.8960000  65.9260000 156.5540000
  57.9200000  76.5320000 163.8000000  57.6420000  75.6170000 163.8410000
  57.1290000  77.0330000 164.0000000  34.9730000  35.0200000 132.9080000
  35.1320000  34.2990000 132.2990000  34.0290000  34.9980000 133.0640000
  53.7750000  84.9820000 146.8180000  54.0240000  85.7240000 146.2660000
  53.9250000  85.2870000 147.7130000  66.5640000  74.6910000 149.3060000
  67.4640000  74.6380000 148.9870000  66.4460000  75.6110000 149.5420000
  53.9700000  76.3510000 156.2170000  53.8160000  75.4100000 156.3030000
  54.1450000  76.6490000 157.1100000  62.4430000  73.7420000 124.0220000
  62.7300000  72.9810000 123.5160000  61.7370000  74.1240000 123.5000000
  32.0510000  78.0510000 139.5670000  32.4730000  77.9620000 140.4210000
  32.2450000  78.9480000 139.2960000  59.9930000  52.5190000 159.0640000
  59.1940000  52.0320000 158.8640000  60.6930000  51.8680000 158.9980000
  46.8510000  81.5370000 126.5840000  47.0590000  81.0880000 127.4040000
  47.1230000  82.4430000 126.7310000  41.5550000  70.2990000 136.0510000
  40.9150000  71.0070000 135.9700000  41.0260000  69.5040000 136.1150000
  86.1410000  36.5940000 139.4530000  86.7400000  36.9530000 138.7980000
  86.5400000  36.8200000 140.2930000  83.7420000  88.2460000 123.5000000
  83.1550000  89.0020000 123.5000000  83.1570000  87.4880000 123.5000000
  47.7060000  42.7230000 133.2460000  47.3960000  43.5890000 133.5100000
  46.9070000  42.2350000 133.0400000  69.5980000  58.8630000 161.3100000
  70.2070000  58.1260000 161.3540000  70.1610000  59.6380000 161.2880000
  60.6140000  47.0750000 161.2920000  60.8730000  47.0340000 160.3720000
  60.0070000  46.3440000 161.4040000  86.9620000  49.4100000 153.6710000
  86.8700000  48.8070000 152.9340000  86.0830000  49.7680000 153.7990000
  38.9350000  37.0660000 130.0230000  39.0270000  37.0070000 129.0730000
  39.1250000  36.1820000 130.3380000  40.3980000  47.0950000 152.0920000
  40.6650000  48.0110000 152.1550000  41.1510000  46.6020000 152.4180000
  70.5410000  56.0410000 159.5510000  69.8160000  56.2550000 158.9650000
  70.7010000  55.1080000 159.4050000  73.4960000  73.3250000 140.5200000
  73.6390000  73.4060000 141.4630000  72.8800000  72.5980000 140.4320000
  32.2690000  84.6280000 162.4360000  32.5820000  84.6240000 161.5320000
  32.9270000  84.1280000 162.9200000  71.0590000  45.1960000 140.4660000
  71.4100000  44.3750000 140.1220000  71.5460000  45.8780000 140.0040000
  84.7820000  83.7880000 163.5870000  85.7230000  83.8510000 163.7480000
  84.5230000  82.9630000 164.0000000  80.5860000  34.4120000 132.8640000
  80.5650000  33.8480000 132.0910000  80.9100000  33.8470000 133.5650000
  85.0580000  63.5750000 163.9830000  84.1120000  63.7190000 163.9620000
  85.1550000  62.6230000 164.0000000  32.6640000  33.0210000 146.0060000
  32.6550000  33.8950000 145.6160000  33.4930000  32.9810000 146.4850000
  42.9090000  66.8770000 135.2630000  42.6930000  66.4760000 134.4210000
  43.1930000  67.7640000 135.0400000  57.6600000  79.0070000 161.5140000
  56.9910000  79.0410000 160.8310000  58.0800000  78.1540000 161.3960000
  68.6110000  46.6170000 128.5120000  68.5460000  47.5570000 128.3420000
  67.9580000  46.2230000 127.9330000  32.7140000  31.0000000 150.7940000
  32.4590000  31.0000000 149.8720000  33.6710000  31.0000000 150.7790000
  42.3940000  54.0850000 132.7230000  42.5440000  53.3010000 132.1950000
  41.9230000  54.6800000 132.1400000  44.5700000  74.3540000 131.0430000
  44.9870000  74.7990000 130.3060000  44.6520000  73.4220000 130.8380000
  33.9920000  39.9250000 154.6830000  34.2270000  38.9970000 154.6640000
  33.0350000  39.9310000 154.6830000  31.3160000  52.2920000 124.3810000
  31.0000000  53.0590000 124.8580000  31.5020000  52.6170000 123.5000000
  49.4760000  75.5140000 159.1890000  48.5860000  75.5920000 158.8470000
  49.8660000  74.8000000 158.6850000  68.5820000  43.3750000 151.3920000
  67.6620000  43.3880000 151.6540000  69.0600000  43.1900000 152.2010000
  41.5030000  46.2190000 157.8170000  41.5110000  45.7210000 158.6340000
  40.5780000  46.2680000 157.5750000  31.9550000  86.2720000 125.9730000
  31.0000000  86.2370000 125.9300000  32.1430000  86.6640000 126.8260000
  31.0070000  85.3550000 132.2040000  31.9290000  85.6120000 132.1830000
  31.0240000  84.3990000 132.1590000  37.5200000  31.4280000 125.7200000
  38.2070000  31.0000000 126.2320000  36.7040000  31.0550000 126.0540000
  54.8400000  53.7540000 151.9610000  55.1400000  52.8460000 151.9630000
  55.6450000  54.2730000 151.9600000  55.5340000  87.4840000 161.4180000
  55.4030000  86.9740000 162.2170000  56.4730000  87.4200000 161.2430000
  36.5050000  32.7700000 123.5010000  35.6640000  33.2260000 123.5000000
  36.2760000  31.8440000 123.5920000  54.3380000  44.8090000 145.4450000
  54.4770000  45.7540000 145.3840000  53.9300000  44.5720000 144.6110000
  43.1780000  31.0330000 149.9480000  43.6010000  31.0000000 149.0910000
  43.2390000  31.9520000 150.2110000  55.7280000  55.3470000 136.7450000
  56.4930000  54.7740000 136.6940000  56.0390000  56.1220000 137.2150000
  41.8460000  85.1430000 137.5480000  41.8250000  86.0500000 137.8530000
  41.5880000  84.6270000 138.3120000  60.5760000  33.3630000 152.0580000
  60.3400000  34.1620000 152.5280000  61.5080000  33.2410000 152.2450000
  47.9090000  77.9580000 156.5110000  48.8560000  77.8370000 156.4440000
  47.6160000  77.2460000 157.0800000  31.9260000  60.5790000 163.0920000
  31.0000000  60.5060000 162.8600000  31.9230000  60.8830000 164.0000000
  58.7580000  60.2950000 135.4130000  58.2390000  59.5870000 135.0320000
  59.3110000  59.8630000 136.0640000  49.1550000  62.3980000 125.7400000
  49.4710000  61.4950000 125.7200000  49.9040000  62.9080000 126.0490000
  71.2880000  63.3910000 142.6720000  70.8430000  64.0940000 142.2000000
  71.7530000  63.8340000 143.3820000  54.2360000  65.0790000 131.7870000
  54.9680000  65.4170000 131.2710000  53.4570000  65.3190000 131.2850000
  88.8410000  56.8830000 163.1980000  89.0000000  56.3860000 164.0000000
  87.9150000  57.1240000 163.2450000  47.7890000  78.8380000 154.1300000
  47.3750000  79.5920000 153.7090000  47.9250000  78.2110000 153.4190000
  60.9090000  56.0580000 163.0450000  61.0530000  55.1180000 162.9320000
  60.3670000  56.3080000 162.2960000  81.5880000  53.1660000 123.5000000
  80.7920000  53.6930000 123.5670000  81.2800000  52.2600000 123.5410000
  45.2030000  89.0000000 144.1560000  45.8580000  88.6450000 144.7570000
  44.3730000  88.9130000 144.6260000  38.5370000  89.0000000 123.7200000
  38.8000000  88.9720000 124.6390000  38.3340000  88.0900000 123.5000000
  34.2930000  33.7610000 137.4270000  34.3320000  33.9570000 136.4910000
  33.3800000  33.5170000 137.5830000  44.3850000  50.4810000 128.5450000
  44.6910000  51.3440000 128.2650000  45.1550000  50.0680000 128.9360000
  86.6870000  76.1030000 145.1040000  86.3630000  76.9130000 145.4990000
  86.3150000  75.4060000 145.6450000  85.3610000  61.5720000 135.7630000
  84.8880000  60.7680000 135.5480000  84.7310000  62.2730000 135.5960000
  68.1590000  63.3820000 123.5600000  67.3540000  62.8690000 123.5000000
  68.8610000  62.7320000 123.5370000  52.5920000  79.0560000 145.6190000
  53.0250000  79.6690000 145.0260000  51.6940000  79.3820000 145.6890000
  31.1170000  68.1700000 163.4730000  31.0000000  67.3460000 163.9460000
  31.7460000  68.6630000 164.0000000  42.7430000  42.6300000 126.4740000
  42.2880000  43.1570000 125.8170000  43.4180000  43.2130000 126.8240000
  43.2470000  46.2440000 155.8680000  43.0290000  45.3280000 156.0380000
  42.6640000  46.5020000 155.1540000  80.7590000  60.6470000 133.1040000
  80.5710000  59.9260000 132.5030000  81.2090000  61.2980000 132.5640000
  56.8060000  65.5760000 128.3590000  56.6970000  65.0300000 129.1370000
  57.3280000  66.3200000 128.6600000  31.4610000  35.2500000 154.0540000
  31.0000000  36.0320000 153.7520000  31.0000000  34.5230000 153.6350000
  55.8920000  40.6140000 136.0130000  55.9760000  40.4690000 136.9550000
  55.1950000  40.0180000 135.7390000  47.6100000  41.1840000 126.9840000
  47.5110000  41.2970000 127.9290000  47.4840000  40.2450000 126.8400000
  34.5440000  83.9340000 125.3660000  33.7160000  84.3330000 125.6340000
  34.3100000  83.3670000 124.6310000  60.4540000  56.5100000 128.5700000
  61.2700000  57.0080000 128.5210000  59.7690000  57.1780000 128.6190000
  59.1450000  47.5590000 152.1790000  60.0810000  47.4480000 152.0140000
  58.9530000  48.4490000 151.8800000  53.6440000  88.8660000 160.2090000
  53.5630000  89.0000000 161.1530000  52.7420000  88.8590000 159.8890000
  73.2150000  72.2410000 146.8570000  72.5060000  71.8990000 146.3120000
  73.8240000  72.6410000 146.2360000  68.6830000  56.1410000 146.5710000
  68.4460000  56.8430000 147.1760000  68.5370000  55.3360000 147.0690000
  70.8050000  36.7460000 143.3620000  70.7910000  35.9670000 143.9170000
  69.8990000  37.0540000 143.3570000  61.4070000  31.3060000 139.5380000
  62.2380000  31.0490000 139.1390000  61.4710000  31.0000000 140.4430000
  77.4790000  42.1940000 154.3790000  76.7340000  41.6980000 154.0400000
  78.2470000  41.6950000 154.0980000  60.5850000  84.6600000 134.2110000
  61.0380000  83.9800000 133.7140000  59.7450000  84.7660000 133.7620000
  44.7660000  86.8400000 146.5900000  44.1510000  86.5380000 147.2580000
  44.3970000  86.5250000 145.7640000  36.9650000  65.7490000 148.0970000
  36.7930000  66.6700000 148.2900000  36.9890000  65.3240000 148.9550000
  64.5430000  70.7690000 142.0480000  65.2550000  70.1580000 142.2370000
  64.2810000  70.5630000 141.1500000  74.3460000  73.5230000 133.9020000
  74.6010000  73.9970000 134.6940000  74.8330000  73.9540000 133.1990000
  45.1720000  54.0870000 136.0490000  45.3690000  54.2350000 136.9740000
  46.0260000  54.0970000 135.6170000  75.0940000  55.9600000 155.1870000
  75.5150000  55.7650000 156.0240000  74.3040000  56.4470000 155.4220000
  55.5040000  58.9990000 159.5510000  56.2510000  59.5580000 159.7620000
  54.8800000  59.5830000 159.1190000  55.9470000  82.1960000 164.0000000
  56.8090000  82.5080000 163.7260000  56.0100000  81.2420000 163.9470000
  73.3220000  39.9120000 158.4100000  72.4990000  39.4500000 158.5660000
  73.0690000  40.6970000 157.9240000  35.8730000  70.5560000 145.3580000
  36.2840000  69.8300000 144.8900000  36.4500000  71.3030000 145.1960000
  45.7490000  65.1500000 123.9900000  45.3860000  65.1320000 124.8760000
  45.1560000  65.7210000 123.5000000  74.7260000  82.7420000 161.5520000
  74.7690000  81.7970000 161.4060000  75.6420000  83.0180000 161.6060000
  48.9490000  75.6370000 126.6270000  48.5800000  74.7550000 126.5850000
  49.8240000  75.5140000 126.9960000  82.7820000  44.9650000 164.0000000
  83.3620000  45.0950000 163.2500000  82.2080000  44.2440000 163.7390000
  78.5340000  82.4910000 151.5710000  78.8520000  83.2760000 152.0170000
  77.6030000  82.4520000 151.7880000  39.3760000  77.0730000 123.6980000
  38.8180000  77.8250000 123.5000000  39.9230000  77.3650000 124.4270000
  80.0710000  72.5480000 136.7360000  80.2330000  72.3940000 135.8050000
  79.8930000  73.4870000 136.7970000  38.0600000  82.8700000 152.0820000
  37.2030000  83.2720000 152.2230000  38.0540000  82.6080000 151.1610000
  63.3040000  62.4420000 128.6930000  63.6820000  62.6860000 127.8480000
  62.3790000  62.6770000 128.6180000  44.4880000  51.9420000 151.7550000
  43.9780000  51.2840000 152.2270000  45.3850000  51.6080000 151.7710000
  87.9860000  34.6650000 139.9960000  88.8890000  34.4510000 139.7620000
  88.0270000  34.9010000 140.9230000  36.4730000  78.1380000 128.3890000
  37.2100000  77.7080000 128.8230000  36.8790000  78.7970000 127.8240000
  36.8250000  50.0790000 142.4240000  36.2210000  50.4730000 141.7950000
  36.5070000  49.1830000 142.5340000  69.8700000  38.1060000 151.0130000
  70.1380000  38.8560000 150.4830000  70.3660000  38.1980000 151.8270000
  62.8880000  38.5350000 129.0600000  62.3280000  39.1980000 128.6580000
  62.2810000  37.9530000 129.5180000  36.2410000  57.6840000 146.9120000
  35.4590000  58.2360000 146.8970000  35.9030000  56.7890000 146.8860000
  75.2530000  60.2850000 135.5340000  75.0850000  59.3430000 135.5540000
  76.2070000  60.3590000 135.5210000  82.2330000  84.3350000 158.7250000
  82.7830000  83.7130000 159.2010000  81.3630000  83.9350000 158.7240000
  35.4220000  33.4940000 156.1800000  34.7590000  32.9540000 156.6110000
  35.1030000  33.5960000 155.2830000  44.8400000  70.8700000 163.4160000
  44.1700000  70.5160000 164.0000000  45.5480000  71.1440000 164.0000000
  47.4290000  46.5420000 145.3660000  46.5910000  46.4060000 144.9250000
  47.8320000  45.6740000 145.3900000  76.4770000  49.4990000 132.9690000
  77.4260000  49.5980000 133.0510000  76.1620000  50.3760000 132.7490000
  67.6460000  50.8210000 145.8680000  68.2830000  50.1070000 145.8360000
  66.7950000  50.3840000 145.8330000  86.3940000  46.4620000 158.9110000
  85.8320000  46.6280000 158.1550000  86.9860000  47.2130000 158.9400000
  81.6370000  72.2680000 155.3700000  81.6120000  73.1100000 154.9160000
  81.9170000  72.4840000 156.2600000  52.6210000  81.1940000 126.0580000
  53.1260000  80.6540000 126.6660000  53.2790000  81.7160000 125.5980000
  42.5490000  47.6130000 130.0950000  42.7790000  48.0000000 129.2510000
  42.6660000  48.3240000 130.7250000  74.1490000  35.0600000 163.8790000
  74.7130000  35.8240000 163.9920000  73.9180000  35.0670000 162.9500000
  56.6690000  84.9440000 163.1800000  56.3470000  85.3170000 164.0000000
  57.3480000  85.5540000 162.8890000  46.9590000  36.9710000 133.0280000
  47.5150000  37.4630000 132.4240000  47.4340000  36.9880000 133.8600000
  57.4350000  33.4220000 139.7540000  57.2310000  33.3260000 140.6840000
  57.5910000  34.3600000 139.6380000  56.3870000  39.1500000 153.2370000
  55.6190000  39.6900000 153.0510000  56.1790000  38.2970000 152.8550000
  79.5840000  74.7270000 159.5360000  80.3830000  74.3630000 159.1560000
  79.8770000  75.1650000 160.3350000  76.3430000  43.2020000 164.0000000
  76.4310000  44.1500000 163.9060000  76.1360000  42.8920000 163.1180000
  72.2350000  57.0070000 157.9860000  71.8550000  56.3520000 157.4010000
  72.1790000  57.8280000 157.4970000  88.2350000  31.9370000 149.1730000
  87.3780000  32.2150000 149.4960000  88.1360000  31.0000000 149.0060000
  57.3290000  51.5500000 137.9510000  57.4790000  52.4590000 137.6900000
  56.9850000  51.1280000 137.1640000  60.4020000  88.8610000 141.6370000
  60.4990000  87.9100000 141.6780000  59.4720000  89.0000000 141.4540000
  72.8480000  55.9140000 161.0540000  72.9200000  54.9670000 160.9330000
  72.0390000  56.0300000 161.5530000  83.8160000  73.2930000 124.0530000
  84.1670000  72.5930000 123.5030000  83.1700000  73.7320000 123.5000000
  70.5750000  31.4580000 146.6220000  71.0940000  31.0000000 145.9620000
  70.9930000  32.3160000 146.7040000  38.4980000  69.1960000 123.5000000
  37.6320000  68.8690000 123.7440000  38.4060000  70.1490000 123.5110000
  82.1500000  81.2170000 138.3770000  81.9070000  81.3720000 139.2890000
  81.7680000  80.3630000 138.1690000  51.4420000  74.0740000 146.9190000
  50.5880000  73.7140000 147.1570000  51.3950000  74.1950000 145.9700000
  64.6480000  43.8410000 124.1870000  65.3760000  43.7770000 123.5690000
  63.8700000  43.6460000 123.6640000  39.3180000  62.7670000 137.8010000
  39.8100000  61.9460000 137.7920000  38.4030000  62.4980000 137.8820000
  60.7490000  38.8890000 163.9830000  59.8120000  39.0830000 164.0000000
  61.1560000  39.7030000 163.6840000  82.4130000  85.1010000 123.5000000
  82.8160000  84.2320000 123.5000000  81.4710000  84.9290000 123.5000000
  59.4420000  74.6130000 149.6540000  59.3200000  73.7970000 150.1400000
  60.3430000  74.5680000 149.3330000  74.0680000  55.1800000 140.0320000
  73.7700000  55.5040000 140.8820000  74.5080000  54.3530000 140.2310000
  77.0700000  74.5400000 161.8940000  76.8930000  74.8250000 160.9980000
  76.3980000  74.9730000 162.4220000  44.2550000  66.4180000 144.7770000
  44.6760000  67.1910000 145.1520000  43.4520000  66.7530000 144.3750000
  68.8890000  81.5590000 139.7020000  68.4920000  82.1900000 139.1020000
  68.1680000  81.2780000 140.2660000  36.3840000  61.7510000 162.3080000
  36.2190000  62.5260000 161.7710000  36.1970000  62.0340000 163.2030000
  64.4590000  65.1850000 158.7250000  65.3080000  65.0370000 159.1410000
  64.0070000  64.3440000 158.7970000  42.1740000  73.8990000 145.1380000
  42.0570000  73.0920000 144.6370000  43.0790000  74.1600000 144.9640000
  66.4840000  75.7310000 142.8790000  66.1160000  74.9260000 142.5160000
  67.2230000  75.4380000 143.4120000  48.4260000  67.2930000 155.7580000
  48.8370000  66.4430000 155.5980000  47.6110000  67.2630000 155.2560000
  37.2580000  39.5790000 136.8080000  38.1100000  39.7170000 136.3950000
  37.2220000  38.6370000 136.9750000  84.3720000  85.2090000 126.7340000
  83.8560000  85.3640000 125.9430000  85.1730000  85.7150000 126.6010000
  71.1580000  46.6000000 152.7410000  72.0790000  46.6190000 152.4810000
  70.9810000  45.6780000 152.9290000  48.4610000  50.9570000 136.2220000
  47.6150000  50.6450000 135.9020000  48.3130000  51.8790000 136.4330000
  45.4680000  59.8090000 162.2690000  45.8180000  60.1720000 161.4550000
  44.5380000  59.6660000 162.0870000  84.4470000  38.9110000 131.8250000
  83.8880000  39.5030000 131.3210000  84.7480000  38.2630000 131.1870000
  75.1530000  68.4520000 155.7390000  74.5670000  67.6960000 155.7180000
  75.7830000  68.2490000 156.4300000  68.6880000  79.6370000 164.0000000
  68.9000000  80.5580000 163.8520000  69.5360000  79.1920000 163.9930000
  38.0740000  75.3840000 129.5080000  38.7790000  75.0680000 130.0730000
  37.5800000  74.5970000 129.2760000  48.4740000  56.9870000 136.4720000
  49.3700000  57.3210000 136.5010000  48.5700000  56.0610000 136.2460000
  36.6680000  72.1950000 131.4760000  36.7320000  72.6990000 130.6650000
  35.8720000  72.5190000 131.8980000  88.8480000  37.9900000 152.0500000
  87.8950000  37.9040000 152.0230000  89.0000000  38.8960000 152.3220000
  62.5460000  89.0000000 154.3640000  62.5040000  88.9160000 155.3170000
  63.1510000  88.3110000 154.0900000  46.1020000  77.2270000 151.2020000
  45.8960000  77.4670000 152.1050000  45.2650000  77.2900000 150.7410000
  88.3740000  72.1470000 150.5340000  88.2120000  71.7740000 151.4000000
  89.0000000  71.5480000 150.1270000  65.1410000  81.3380000 150.7150000
  65.6560000  81.8430000 151.3440000  64.2340000  81.5930000 150.8860000
  65.0460000  87.1540000 145.0500000  65.1020000  88.0480000 145.3870000
  64.1640000  86.8640000 145.2830000  48.2700000  56.5020000 131.0800000
  48.2790000  55.6470000 131.5110000  48.3040000  57.1330000 131.7990000
  68.5690000  79.4780000 138.2990000  68.3850000  80.0120000 137.5260000
  68.5360000  78.5760000 137.9800000  49.1400000  48.5660000 139.5610000
  49.7110000  47.8050000 139.6650000  48.2640000  48.2390000 139.7660000
  63.5950000  43.9570000 145.0330000  64.4810000  43.8340000 144.6920000
  63.3660000  44.8540000 144.7880000  56.7360000  60.3570000 156.8560000
  55.7960000  60.1860000 156.7870000  57.0690000  59.6440000 157.4020000
  72.3310000  73.9410000 159.4900000  72.6250000  74.6900000 158.9710000
  71.4010000  74.1090000 159.6460000  64.6060000  34.4960000 156.6740000
  63.8800000  35.0010000 156.3080000  64.2370000  33.6260000 156.8320000
  35.1860000  38.6840000 132.9250000  36.0780000  38.8800000 132.6370000
  35.1340000  37.7280000 132.9110000  55.2400000  89.0000000 126.1330000
  54.7120000  88.3870000 126.6430000  54.8710000  88.9580000 125.2500000
  54.0760000  88.5150000 149.6230000  53.8320000  89.0000000 148.8350000
  54.8180000  89.0000000 149.9830000  40.9730000  81.8450000 154.5430000
  40.1990000  81.2910000 154.6370000  40.6320000  82.7400000 154.5590000
  53.9200000  86.0210000 158.2490000  54.4290000  85.2230000 158.3950000
  54.5410000  86.7330000 158.4010000  63.0820000  64.6540000 134.5290000
  62.1960000  64.3580000 134.7390000  62.9530000  65.3740000 133.9110000
  82.0470000  71.3800000 163.8470000  82.6580000  70.6580000 163.9920000
  82.5670000  72.1690000 164.0000000  76.4070000  37.9760000 143.1880000
  75.9350000  37.1430000 143.1950000  76.6140000  38.1270000 142.2650000
  47.2380000  47.4430000 152.8580000  47.3760000  47.4070000 151.9120000
  47.9390000  46.9020000 153.2230000  51.1070000  70.8610000 140.9290000
  51.3210000  71.2010000 140.0600000  51.8950000  71.0210000 141.4500000
  31.0290000  42.6710000 136.6430000  31.0000000  43.3880000 137.2770000
  31.5990000  42.9920000 135.9440000  54.7960000  46.1700000 142.8940000
  54.9890000  46.9840000 142.4300000  55.6350000  45.7090000 142.9310000
  49.1630000  34.0800000 155.1450000  49.5300000  34.9020000 154.8220000
  49.7980000  33.7710000 155.7920000  48.4940000  38.6010000 129.6590000
  48.4680000  38.8570000 130.5810000  49.0890000  39.2320000 129.2520000
  56.1510000  43.1230000 123.5010000  57.0180000  43.5290000 123.5010000
  55.5400000  43.8600000 123.5000000  55.8100000  85.1640000 126.2210000
  56.7120000  84.8570000 126.3110000  55.8710000  86.1150000 126.3100000
  55.4250000  37.5260000 149.9450000  54.9630000  37.6160000 150.7780000
  54.7320000  37.5370000 149.2840000  75.9690000  39.0940000 133.2340000
  76.2800000  39.3020000 132.3530000  75.0340000  38.9190000 133.1230000
  80.4330000  79.3360000 161.1750000  80.1230000  78.4610000 161.4110000
  81.0360000  79.5750000 161.8790000  58.5480000  74.1810000 138.8200000
  57.7810000  73.6660000 138.5710000  59.2000000  73.9800000 138.1490000
  67.4050000  67.1140000 126.9440000  67.8860000  67.6280000 127.5930000
  66.4840000  67.2410000 127.1730000  79.8720000  43.2790000 129.1020000
  79.5690000  43.3900000 128.2010000  80.7240000  43.7160000 129.1240000
  88.5220000  41.3580000 135.4470000  89.0000000  41.2730000 136.2720000
  89.0000000  42.0300000 134.9610000  46.8560000  76.5490000 127.9230000
  46.2450000  76.0600000 127.3720000  47.0040000  75.9820000 128.6800000
  76.5430000  43.3620000 129.7970000  76.1380000  42.8310000 129.1120000
  77.4140000  43.5680000 129.4570000  68.7130000  75.3970000 133.7990000
  69.4890000  75.8390000 134.1440000  69.0560000  74.6270000 133.3460000
  64.8680000  36.8210000 136.8380000  65.3700000  36.3980000 137.5350000
  65.4080000  36.7140000 136.0540000  46.5400000  55.6540000 126.8510000
  47.0700000  55.3050000 126.1350000  45.6510000  55.6850000 126.4990000
  45.3900000  68.7400000 150.3170000  45.5090000  68.1960000 151.0950000
  44.4400000  68.8260000 150.2270000  73.3300000  51.9650000 149.8330000
  74.1450000  52.4570000 149.9260000  73.0700000  51.7590000 150.7320000
  61.0250000  58.1230000 130.7460000  61.7970000  58.0560000 131.3070000
  60.4720000  57.3860000 131.0090000  78.6020000  38.0710000 128.5350000
  77.9910000  38.0110000 127.8010000  79.2770000  38.6820000 128.2370000
  79.8150000  41.1490000 141.5440000  79.3060000  41.7930000 142.0350000
  79.8720000  41.5120000 140.6590000  56.3620000  63.2470000 157.6340000
  56.2850000  64.1860000 157.4660000  55.4940000  62.9860000 157.9420000
  80.2470000  34.0030000 136.0910000  79.9060000  34.7840000 135.6540000
  79.5660000  33.7650000 136.7210000  75.9740000  85.8820000 136.1510000
  75.0850000  85.8960000 136.5060000  75.8530000  85.8840000 135.2010000
  67.3820000  55.7410000 141.3660000  67.4060000  55.0150000 141.9890000
  66.6710000  55.5180000 140.7650000  39.4010000  38.0080000 142.5170000
  39.6410000  37.1030000 142.7130000  39.6560000  38.1320000 141.6030000
  58.8850000  69.6040000 152.7200000  57.9830000  69.5800000 153.0400000
  59.2680000  68.7790000 153.0210000  71.8830000  67.5520000 141.5810000
  72.7040000  67.8110000 141.1630000  71.6780000  68.2750000 142.1740000
  78.8380000  69.1300000 160.5370000  78.9700000  69.0190000 159.5960000
  79.6860000  69.4330000 160.8640000  37.5230000  35.9010000 146.3990000
  38.1210000  35.3480000 146.9000000  37.4760000  35.4850000 145.5380000
  52.5810000  66.6360000 159.8990000  51.9280000  66.4180000 159.2340000
  52.8060000  67.5500000 159.7240000  81.4760000  59.3780000 143.2650000
  81.9390000  58.6190000 142.9100000  80.6450000  59.0250000 143.5830000
  70.3610000  50.3700000 149.2440000  71.2950000  50.1620000 149.2660000
  70.0140000  49.8410000 148.5250000  42.6480000  76.3920000 154.3660000
  41.9560000  77.0060000 154.6150000  42.5280000  75.6450000 154.9530000
  47.8050000  82.5620000 153.3110000  47.9640000  81.9950000 154.0650000
  47.5590000  81.9610000 152.6070000  54.6530000  60.0250000 130.4550000
  54.1390000  60.1610000 131.2500000  55.5630000  60.1160000 130.7380000
  70.5980000  43.6790000 129.9300000  70.3370000  42.7630000 130.0190000
  69.8250000  44.1150000 129.5680000  81.2230000  39.5170000 151.7890000
  80.8380000  40.2920000 151.3780000  81.6520000  39.0530000 151.0700000
  57.3480000  40.7760000 133.9160000  57.4140000  41.2840000 133.1080000
  57.6080000  39.8900000 133.6650000  67.0620000  43.8370000 145.7830000
  67.1080000  43.5100000 146.6800000  67.9460000  44.1550000 145.5970000
  82.0270000  39.1880000 142.2170000  82.9580000  39.2160000 142.4390000
  81.9320000  39.8200000 141.5030000  36.2810000  31.4580000 131.4230000
  37.1040000  31.0000000 131.5950000  35.9240000  31.0250000 130.6470000
  55.3060000  44.4020000 126.0830000  56.2280000  44.1510000 126.0370000
  55.2400000  44.9290000 126.8800000  40.3890000  37.4490000 137.9540000
  41.0330000  37.7490000 138.5950000  39.5770000  37.3570000 138.4540000
  52.1260000  66.2170000 153.1660000  52.0290000  67.1690000 153.1420000
  51.2280000  65.8840000 153.1680000  45.1100000  84.5610000 137.7160000
  45.9050000  84.4800000 138.2440000  44.3950000  84.4940000 138.3490000
  39.6530000  89.0000000 143.2370000  39.8760000  88.9370000 142.3090000
  38.7380000  88.7220000 143.2830000  31.0590000  47.7790000 143.3080000
  31.0000000  48.6770000 142.9820000  31.0300000  47.2360000 142.5200000
  55.2410000  73.4930000 126.8860000  55.2440000  72.9450000 126.1010000
  54.8310000  72.9470000 127.5570000  52.4080000  42.6820000 154.3470000
  51.5390000  42.7890000 154.7330000  52.5720000  43.5090000 153.8920000
  70.0880000  31.0090000 150.3780000  69.1360000  31.0000000 150.2740000
  70.3450000  31.9030000 150.1530000  38.7710000  89.0000000 160.9790000
  39.2680000  88.1850000 161.0480000  38.3910000  88.9750000 160.1000000
  43.8710000  77.5510000 131.8300000  43.8010000  76.5970000 131.8540000
  44.7420000  77.7190000 131.4700000  36.2230000  54.8310000 128.8230000
  37.0730000  55.1950000 129.0700000  36.4330000  54.0070000 128.3830000
  66.9640000  70.1030000 131.1840000  66.4150000  70.8670000 131.3550000
  67.7780000  70.4650000 130.8350000  51.9100000  61.1220000 125.1480000
  52.6000000  61.7660000 124.9950000  51.8940000  61.0070000 126.0980000
  31.0000000  44.1350000 132.9520000  31.0350000  44.8840000 133.5470000
  31.1420000  43.3740000 133.5160000  70.3490000  47.5630000 149.7570000
  70.9040000  47.8830000 150.4680000  69.4670000  47.8480000 149.9940000
  57.3620000  88.7220000 151.6800000  58.0690000  88.2880000 152.1570000
  56.5840000  88.5780000 152.2200000  69.8880000  42.1870000 149.3330000
  70.7780000  42.1690000 148.9820000  69.6550000  41.2650000 149.4450000
  53.0100000  39.2760000 146.8800000  53.9590000  39.2910000 146.7640000
  52.6690000  39.7700000 146.1330000  75.5870000  58.2690000 150.4950000
  75.4910000  57.3910000 150.8650000  74.7110000  58.6510000 150.5540000
  88.9880000  31.9400000 159.9520000  89.0000000  31.0010000 159.7660000
  88.9780000  32.3550000 159.0890000  40.7650000  73.0940000 133.9600000
  39.8530000  72.9170000 134.1910000  41.0620000  73.7210000 134.6200000
  79.3330000  77.9450000 156.3030000  78.6320000  78.5920000 156.3880000
  78.8770000  77.1120000 156.1790000  76.3440000  38.3830000 157.0570000
  76.2080000  37.6040000 157.5960000  77.2900000  38.4080000 156.9070000
  75.6830000  76.2120000 135.1110000  76.1220000  76.7310000 134.4380000
  76.1010000  76.4770000 135.9310000  43.0730000  40.1820000 133.3160000
  42.2780000  40.7150000 133.3290000  42.7620000  39.2840000 133.4380000
  41.6960000  42.7380000 129.6640000  42.3510000  42.1770000 129.2490000
  41.6390000  42.4150000 130.5640000  34.5830000  33.5860000 143.3190000
  33.8620000  34.2010000 143.4480000  35.2520000  33.8660000 143.9440000
  85.3080000  86.4310000 124.2100000  85.7390000  85.6150000 123.9560000
  85.9260000  87.1180000 123.9560000  51.0030000  80.3330000 160.1210000
  50.2340000  80.3500000 160.6900000  50.7780000  80.9180000 159.3960000
  69.9620000  88.9630000 153.5600000  69.7440000  88.0340000 153.6400000
  70.9090000  89.0000000 153.7020000  62.4570000  88.4140000 163.9970000
  61.7010000  89.0000000 163.9900000  63.2150000  89.0000000 164.0000000
  57.1850000  31.0060000 148.8680000  58.1250000  31.0000000 149.0450000
  56.7770000  31.0090000 149.7350000  81.1520000  56.3740000 152.4170000
  81.1100000  55.4240000 152.5250000  82.0420000  56.6070000 152.6830000
  41.0130000  76.5320000 136.0510000  41.5220000  75.9520000 136.6170000
  40.1120000  76.4410000 136.3620000  36.5170000  62.0390000 132.5370000
  36.3900000  61.1220000 132.7810000  36.8920000  62.4460000 133.3190000
  71.7440000  88.4820000 144.5110000  72.1380000  87.6160000 144.6070000
  72.1250000  89.0000000 145.2200000  84.4430000  57.2220000 159.6260000
  85.3960000  57.2490000 159.7060000  84.1700000  58.1380000 159.6960000
  66.2920000  85.9420000 136.5090000  65.3950000  85.9830000 136.8400000
  66.5170000  85.0110000 136.5400000  46.0260000  34.2960000 127.3770000
  45.2570000  33.8160000 127.6850000  45.6670000  35.0740000 126.9480000
  34.2660000  57.8710000 159.0940000  33.3860000  58.2270000 159.2150000
  34.1480000  56.9210000 159.1310000  55.8630000  82.1740000 160.6190000
  55.9530000  82.7360000 161.3880000  56.5300000  81.4970000 160.7370000
  38.3020000  65.6280000 145.1990000  38.3310000  65.8960000 144.2810000
  37.6510000  66.2080000 145.5970000  70.9250000  88.4800000 134.8950000
  71.6960000  88.9950000 134.6600000  70.4850000  89.0000000 135.5680000
  77.4470000  83.6480000 149.5720000  77.2450000  84.3450000 150.1950000
  78.3520000  83.8170000 149.3080000  85.8270000  88.8900000 149.4780000
  85.9550000  89.0000000 150.4200000  86.5190000  88.2830000 149.2120000
  68.6700000  44.2760000 123.9370000  67.8350000  43.8180000 124.0360000
  68.4430000  45.0980000 123.5000000  33.6120000  53.8690000 125.7860000
  33.4660000  53.4640000 124.9320000  33.7940000  54.7880000 125.5880000
  76.3050000  40.3020000 144.0990000  76.7500000  40.5260000 144.9170000
  75.3740000  40.4020000 144.2970000  72.8560000  40.7850000 161.7100000
  72.9360000  40.4230000 160.8270000  73.4780000  40.2800000 162.2330000
  41.9520000  31.0130000 143.4610000  41.0370000  31.1090000 143.7250000
  42.4390000  31.0000000 144.2850000  75.8430000  51.9660000 125.6330000
  76.2900000  51.5020000 126.3410000  75.6740000  51.2930000 124.9740000
  80.7270000  49.6630000 143.1440000  81.6620000  49.6180000 142.9430000
  80.4150000  50.4290000 142.6620000  39.2950000  32.8720000 131.1860000
  38.4030000  33.1440000 130.9760000  39.8410000  33.6130000 130.9210000
  41.8060000  57.0960000 153.8500000  42.6540000  57.2730000 153.4440000
  41.9170000  57.3620000 154.7630000  35.4730000  75.2620000 128.1070000
  35.0310000  76.1100000 128.1560000  35.8210000  75.2250000 127.2150000
  56.7660000  46.3180000 155.1430000  57.3600000  46.8150000 154.5810000
  57.1380000  45.4360000 155.1650000  52.0050000  36.4380000 155.6530000
  52.6030000  36.1870000 154.9490000  52.0390000  37.3950000 155.6670000
  56.1810000  37.4940000 133.8370000  55.4660000  38.1280000 133.8010000
  55.9130000  36.7950000 133.2390000  88.4630000  70.7800000 124.7530000
  89.0000000  70.9020000 123.9700000  88.9280000  71.2600000 125.4390000
  61.7400000  39.7840000 133.9380000  61.5940000  40.4900000 133.3080000
  61.0650000  39.1360000 133.7330000  34.2340000  74.0580000 145.6540000
  34.2420000  74.4040000 146.5470000  34.4900000  73.1410000 145.7500000
  31.0160000  75.4200000 145.2080000  31.0000000  76.3490000 145.4360000
  31.9310000  75.2430000 144.9870000  45.0970000  85.8590000 158.1160000
  44.2400000  86.2230000 157.8970000  45.0530000  85.6920000 159.0580000
  83.9460000  45.2980000 148.8720000  83.1840000  44.7210000 148.9250000
  84.6970000  44.7140000 148.9830000  37.0690000  70.8850000 141.6690000
  36.1120000  70.8980000 141.6560000  37.3090000  70.2540000 140.9910000
  62.7170000  83.5740000 161.7950000  61.8520000  83.4170000 161.4170000
  62.5590000  84.2010000 162.5010000  31.5850000  89.0000000 127.5220000
  31.0000000  88.9450000 126.7670000  31.0000000  88.9990000 128.2800000
  88.4960000  77.9870000 144.7610000  89.0000000  78.2400000 143.9870000
  89.0000000  77.2730000 145.1520000  34.6510000  78.4550000 142.0860000
  35.2380000  79.1590000 142.3620000  33.8170000  78.6570000 142.5120000
  31.2790000  71.1320000 147.2150000  31.0000000  72.0400000 147.3250000
  32.2250000  71.1860000 147.0740000  62.6800000  75.7890000 137.6810000
  62.7110000  76.7430000 137.7390000  61.7560000  75.5870000 137.5350000
  43.8750000  46.6810000 159.2390000  43.2180000  47.2160000 159.6830000
  43.7960000  45.8170000 159.6440000  73.5390000  53.2230000 132.2320000
  73.8600000  52.3660000 132.5100000  74.3300000  53.7160000 132.0120000
  34.5710000  85.3150000 153.1440000  35.0320000  84.4900000 153.2940000
  34.4000000  85.6580000 154.0210000  33.9570000  55.7610000 128.3250000
  33.7880000  56.3180000 127.5650000  33.5940000  54.9090000 128.0830000
  53.2510000  67.5980000 132.9080000  54.0280000  67.5040000 132.3580000
  53.5000000  68.2470000 133.5670000  36.4630000  83.4720000 145.7000000
  35.6620000  83.5950000 145.1920000  36.2770000  82.7200000 146.2640000
  47.6730000  83.1650000 163.9010000  48.4820000  83.6620000 163.7790000
  46.9900000  83.8330000 163.9690000  84.3800000  43.0820000 128.0570000
  84.4800000  44.0310000 128.1200000  83.7780000  42.8570000 128.7670000
  71.9420000  70.5230000 126.4140000  71.1770000  70.1080000 126.0180000
  72.6550000  69.9000000 126.2720000  76.7990000  79.5440000 144.2960000
  75.9340000  79.4280000 143.9020000  76.7460000  79.0790000 145.1320000
  37.2870000  52.5950000 134.6290000  36.6130000  52.7250000 133.9630000
  37.0400000  51.7780000 135.0640000  48.1510000  81.0600000 124.5020000
  48.4110000  80.2440000 124.0760000  48.9510000  81.3780000 124.9210000
  46.7780000  37.0360000 154.7760000  47.5820000  36.7710000 155.2230000
  46.5450000  37.8730000 155.1770000  49.8170000  64.5800000 130.8120000
  50.7300000  64.6290000 130.5290000  49.6790000  63.6550000 131.0170000
  76.0840000  38.9050000 159.7800000  77.0330000  38.9190000 159.6620000
  75.7700000  39.6670000 159.2910000  88.9640000  81.8610000 123.9460000
  89.0000000  82.7270000 123.5410000  88.2420000  81.4180000 123.5000000
  48.7890000  63.3320000 147.5290000  48.4860000  63.1930000 146.6320000
  48.4530000  64.1980000 147.7640000  35.1230000  88.8990000 143.2760000
  34.5960000  89.0000000 142.4840000  36.0280000  88.9950000 142.9770000
  60.6030000  61.9710000 156.0700000  60.1830000  62.5550000 155.4390000
  60.1230000  61.1460000 155.9890000  45.3130000  46.4390000 141.9140000
  44.8670000  46.5630000 142.7520000  45.7900000  45.6150000 142.0150000
  51.5730000  42.4070000 143.7130000  51.1490000  41.5680000 143.5350000
  51.4020000  42.5700000 144.6410000  31.0010000  75.4630000 138.7150000
  31.8160000  75.0400000 138.9860000  31.0000000  75.3910000 137.7600000
  67.7200000  56.9900000 161.3530000  68.0120000  56.3280000 160.7270000
  66.8630000  56.6800000 161.6480000  83.0310000  53.2720000 153.3980000
  82.2620000  53.6350000 153.8360000  83.5000000  52.8010000 154.0870000
  76.9470000  68.4200000 134.2340000  77.7150000  67.9660000 134.5810000
  77.3000000  69.2110000 133.8260000  83.6460000  67.8250000 148.2630000
  83.4490000  68.3660000 149.0280000  83.6860000  66.9310000 148.6050000
  55.3940000  34.5470000 155.9310000  55.1890000  34.0420000 156.7180000
  54.7200000  34.2920000 155.3000000  50.9960000  34.2030000 152.9110000
  51.8750000  33.8560000 153.0590000  51.0620000  34.6820000 152.0850000
  64.6380000  44.9980000 158.9900000  64.8230000  44.1580000 159.4090000
  63.7180000  44.9390000 158.7310000  44.7310000  59.6620000 154.3360000
  45.5100000  59.1130000 154.2520000  45.0700000  60.5580000 154.3590000
  65.0790000  52.1120000 125.9220000  66.0330000  52.1790000 125.9220000
  64.9040000  51.1710000 125.9740000  80.6900000  88.0550000 123.7490000
  80.8270000  87.3650000 124.3980000  80.7720000  88.8700000 124.2450000
  66.5130000  67.2730000 130.5820000  66.4660000  67.0120000 129.6620000
  65.6270000  67.5660000 130.7940000  39.7820000  64.5860000 150.4610000
  40.5750000  64.4890000 150.9880000  39.2470000  63.8260000 150.6910000
  48.3990000  35.2410000 124.7180000  47.9070000  34.4880000 124.3920000
  47.7310000  35.9000000 124.9100000  56.6560000  67.3830000 126.3980000
  56.7510000  66.5160000 126.0030000  56.3610000  67.9430000 125.6790000
  68.2080000  37.3200000 135.2880000  68.1300000  36.4820000 135.7420000
  67.8480000  37.9600000 135.9030000  59.8710000  62.4420000 150.1290000
  59.3630000  61.6470000 150.2880000  59.2430000  63.1550000 150.2470000
  78.6760000  67.3100000 132.1620000  78.8880000  68.2100000 131.9140000
  79.4210000  67.0260000 132.6920000  49.3270000  76.9490000 151.7600000
  50.1970000  76.8830000 152.1520000  48.8280000  76.2380000 152.1630000
  82.9780000  71.1790000 134.0860000  82.1640000  71.4670000 134.4990000
  82.8910000  70.2270000 134.0230000  64.8050000  53.7190000 158.2610000
  65.1010000  53.3580000 159.0960000  65.1680000  53.1270000 157.6010000
  88.6460000  31.0010000 134.8520000  87.6960000  31.0000000 134.9720000
  89.0000000  31.0000000 135.7420000  82.0850000  64.5570000 145.8780000
  81.7430000  64.6050000 144.9860000  81.7380000  65.3380000 146.3100000
  65.5000000  33.3730000 159.0250000  66.2900000  33.2920000 158.4920000
  65.7710000  33.8980000 159.7780000  38.7560000  59.3040000 138.6270000
  38.2900000  59.9950000 138.1570000  38.6770000  58.5340000 138.0640000
  69.8870000  74.7890000 143.4700000  69.3060000  74.0300000 143.5180000
  70.5390000  74.6350000 144.1540000  68.1570000  83.4940000 132.1360000
  68.0760000  83.5130000 131.1830000  68.7140000  84.2450000 132.3440000
  88.5010000  74.4400000 144.6640000  89.0000000  74.5530000 145.4730000
  89.0000000  73.7950000 144.1620000  84.2380000  49.3930000 158.8530000
  84.1170000  48.4850000 158.5750000  85.1840000  49.5330000 158.8080000
  43.4500000  54.6830000 150.5770000  43.7280000  54.3030000 151.4100000
  43.2080000  53.9290000 150.0380000  53.2780000  84.1890000 129.3850000
  53.4170000  85.0790000 129.7070000  52.3340000  84.1320000 129.2340000
  72.5670000  66.9280000 126.0220000  72.6250000  65.9990000 126.2470000
  73.4600000  67.1730000 125.7780000  57.3380000  84.4310000 146.4090000
  56.6960000  85.0330000 146.7840000  57.8400000  84.9670000 145.7950000
  31.6670000  62.1360000 141.2040000  32.4940000  62.5160000 140.9090000
  31.0990000  62.8910000 141.3630000  48.8090000  51.5300000 125.9590000
  48.5860000  51.6530000 126.8820000  49.7490000  51.3520000 125.9610000
  31.0440000  45.4450000 128.6800000  31.0000000  45.5980000 127.7360000
  31.0020000  44.4920000 128.7700000  71.8580000  39.5400000 138.0430000
  71.8550000  39.9170000 138.9230000  71.1960000  40.0410000 137.5650000
  40.7230000  62.8810000 163.9460000  39.7820000  63.0500000 164.0000000
  40.7980000  61.9270000 164.0000000  78.0170000  33.8410000 147.3760000
  77.9130000  34.3900000 148.1530000  77.2330000  33.2920000 147.3620000
  75.6710000  35.5270000 150.7560000  75.0900000  35.8990000 150.0930000
  76.3640000  35.0970000 150.2540000  55.8360000  54.9420000 161.7150000
  56.5830000  54.7960000 161.1360000  55.7810000  55.8940000 161.8000000
  31.6620000  48.7180000 163.5900000  31.0000000  48.1610000 164.0000000
  31.2310000  49.0660000 162.8090000  61.2900000  44.2380000 131.7070000
  60.8720000  43.3970000 131.5230000  60.5880000  44.7810000 132.0660000
  77.8720000  63.6970000 137.7580000  78.5910000  64.3120000 137.6130000
  77.1790000  64.2280000 138.1520000  54.4980000  54.2260000 138.6110000
  55.3680000  54.3260000 138.9990000  53.9850000  54.9440000 138.9830000
  84.2700000  36.6230000 125.9910000  85.0110000  36.5620000 126.5940000
  83.9030000  35.7390000 125.9720000  83.1370000  72.4310000 127.9400000
  83.8640000  72.7850000 128.4520000  83.4570000  72.4300000 127.0380000
  60.7610000  43.7730000 143.4360000  61.2460000  44.5530000 143.1680000
  60.9700000  43.6690000 144.3650000  45.6190000  39.7140000 131.5100000
  45.9380000  39.6760000 130.6080000  45.5090000  40.6490000 131.6860000
  52.4760000  36.7510000 132.4780000  53.0030000  37.3190000 133.0390000
  53.1120000  36.3200000 131.9060000  85.5480000  65.1660000 150.8250000
  85.5760000  65.9560000 151.3640000  85.2890000  65.4760000 149.9570000
  56.6410000  49.5750000 158.1850000  57.1050000  50.3760000 158.4280000
  57.3110000  49.0230000 157.7810000  83.3590000  76.2090000 150.2100000
  83.5190000  76.8810000 149.5480000  84.1820000  75.7230000 150.2620000
  72.9300000  47.1640000 133.0960000  73.7290000  46.6370000 133.1030000
  72.2190000  46.5220000 133.0880000  53.7110000  44.4110000 134.3480000
  53.5420000  45.3170000 134.0930000  53.3580000  43.8890000 133.6270000
  67.5780000  49.9640000 135.0990000  66.6630000  49.8060000 135.3320000
  67.8600000  49.1540000 134.6730000  46.2880000  84.1600000 128.7050000
  47.2350000  84.1390000 128.5650000  46.0700000  85.0920000 128.7320000
  73.7120000  54.4000000 163.3680000  72.7980000  54.5100000 163.6320000
  74.0850000  55.2800000 163.4210000  53.3920000  85.0260000 163.8780000
  53.9000000  85.8290000 163.9870000  54.0290000  84.3210000 164.0000000
  80.7130000  42.6370000 137.4610000  80.2790000  42.9150000 138.2680000
  81.5560000  43.0900000 137.4750000  77.0390000  48.7870000 123.5000000
  77.7870000  49.3850000 123.5030000  76.2730000  49.3620000 123.5040000
  39.0060000  60.1850000 156.8890000  39.0100000  60.9890000 156.3690000
  38.2020000  60.2380000 157.4060000  64.5510000  41.8740000 154.3830000
  64.9410000  42.0190000 153.5210000  63.9910000  41.1060000 154.2680000
  82.7280000  42.8170000 139.6660000  81.9480000  42.8340000 140.2210000
  82.9240000  43.7400000 139.5020000  80.8000000  46.1000000 139.2930000
  79.8600000  46.2790000 139.3090000  80.8620000  45.1440000 139.2930000
  73.7080000  57.2260000 128.5490000  72.9110000  57.0230000 128.0590000
  74.2980000  56.4960000 128.3620000  70.2030000  54.5280000 128.9660000
  70.7370000  53.7440000 128.8400000  69.3260000  54.1920000 129.1580000
  39.2790000  78.1630000 140.1020000  38.6770000  78.8580000 139.8370000
  39.3360000  77.5890000 139.3370000  56.4220000  87.1450000 141.1030000
  56.4520000  87.2300000 142.0560000  57.2830000  86.8000000 140.8660000
  62.0660000  64.0930000 161.5370000  62.9260000  63.8340000 161.2050000
  61.8340000  64.8680000 161.0250000  73.0350000  60.3330000 136.6860000
  72.3730000  60.8920000 137.0940000  73.1350000  59.5990000 137.2920000
  64.6370000  87.1870000 148.2220000  64.3440000  88.0980000 148.1860000
  63.9460000  86.6960000 147.7770000  37.1760000  39.8770000 144.3230000
  37.5740000  40.7420000 144.4170000  37.8900000  39.3150000 144.0200000
  45.8110000  67.8960000 162.9690000  45.2870000  68.3060000 163.6570000
  46.3070000  68.6190000 162.5830000  88.0990000  84.8360000 149.2580000
  88.9990000  84.8200000 149.5840000  87.5610000  84.6640000 150.0310000
  85.0170000  75.3540000 126.1690000  85.7800000  75.5680000 126.7060000
  84.3320000  75.1360000 126.8020000  67.8350000  61.4110000 145.3310000
  67.2590000  60.6470000 145.3560000  67.6120000  61.8520000 144.5110000
  49.9270000  58.5540000 124.0160000  49.1860000  58.1580000 123.5580000
  50.1420000  59.3310000 123.5000000  61.9620000  77.5960000 146.2080000
  61.4250000  78.2340000 145.7380000  61.8990000  77.8600000 147.1260000
  68.0890000  46.6420000 152.4440000  68.5310000  45.8000000 152.3400000
  68.7350000  47.2010000 152.8770000  67.1090000  55.1960000 144.7940000
  66.9340000  54.4500000 145.3670000  67.9770000  55.0200000 144.4290000
  32.2400000  73.4550000 156.7700000  31.6120000  72.7490000 156.6200000
  32.8190000  73.1200000 157.4550000  51.9960000  73.2660000 164.0000000
  52.4170000  72.4250000 163.8220000  51.0600000  73.0910000 163.9040000
  69.9780000  54.5680000 131.5970000  69.2780000  53.9260000 131.7150000
  70.7450000  54.0450000 131.3590000  81.8190000  68.0680000 133.3300000
  81.8660000  67.1190000 133.2080000  81.8320000  68.4250000 132.4420000
  33.5050000  41.1300000 163.6540000  34.3210000  41.4910000 164.0000000
  33.4810000  40.2310000 163.9850000  59.7810000  69.2780000 144.4700000
  58.8630000  69.0150000 144.4140000  59.7650000  70.1070000 144.9480000
  86.0320000  44.5790000 161.1740000  86.8400000  45.0130000 160.9000000
  85.4450000  45.2960000 161.4170000  34.1620000  41.7290000 152.5970000
  34.0110000  42.5800000 152.1850000  33.5250000  41.1460000 152.1850000
  47.9350000  31.0090000 125.9780000  47.7240000  31.4000000 125.1310000
  47.1040000  31.0000000 126.4530000  77.2280000  79.2940000 135.0310000
  77.8010000  78.5290000 135.0840000  77.8230000  80.0430000 135.0630000
  74.1300000  51.0260000 153.1310000  74.7950000  50.9020000 153.8070000
  73.5170000  51.6560000 153.5110000  71.4970000  70.0330000 159.0660000
  70.7220000  69.5160000 158.8490000  71.1480000  70.8480000 159.4280000
  78.7520000  70.7720000 128.5630000  77.8400000  70.8400000 128.2820000
  78.9660000  71.6440000 128.8960000  50.1970000  31.5530000 142.3490000
  49.4750000  31.0000000 142.6480000  49.7700000  32.2790000 141.8940000
  80.6430000  85.2320000 153.8170000  80.9270000  84.4050000 153.4260000
  79.9410000  85.5400000 153.2430000  66.8080000  73.1330000 159.6800000
  66.9490000  74.0800000 159.6520000  66.0360000  72.9900000 159.1320000
  38.8590000  57.9560000 128.7450000  39.5780000  58.4040000 129.1910000
  39.0180000  57.0260000 128.9100000  79.2560000  79.6760000 125.4060000
  78.3170000  79.7750000 125.2510000  79.3590000  78.7650000 125.6840000
  52.2900000  70.6310000 161.1640000  53.2210000  70.4330000 161.0580000
  51.9960000  70.0380000 161.8560000  55.7160000  37.7840000 159.7100000
  56.5910000  38.1600000 159.8100000  55.2330000  38.4330000 159.1980000
  81.5410000  66.6130000 130.3000000  82.0220000  65.7870000 130.2540000
  80.6630000  66.3640000 130.5890000  41.2850000  47.3830000 149.1300000
  41.1530000  46.6230000 149.6950000  42.1700000  47.2730000 148.7810000
  49.5400000  73.9620000 153.8460000  50.2490000  73.6440000 154.4050000
  49.9670000  74.1800000 153.0170000  67.1270000  55.7970000 131.1210000
  66.5350000  56.1480000 131.7860000  67.9730000  56.2030000 131.3150000
  78.3490000  49.0660000 126.5120000  77.6180000  49.4120000 126.0010000
  77.9480000  48.7480000 127.3210000  83.6950000  36.7770000 141.6280000
  84.1820000  35.9530000 141.6360000  84.2760000  37.3950000 141.1850000
  49.9460000  39.3960000 142.7050000  49.3730000  38.6510000 142.8860000
  49.3470000  40.1290000 142.5600000  35.5500000  85.0520000 138.2410000
  34.9330000  85.7830000 138.2520000  35.7740000  84.9410000 137.3160000
  77.5580000  53.1560000 145.2320000  77.8580000  53.7570000 145.9140000
  77.6030000  53.6690000 144.4240000  77.4260000  55.5560000 136.0420000
  77.6890000  54.8760000 135.4220000  78.1490000  56.1830000 136.0310000
  83.5500000  77.0030000 163.4140000  83.9370000  76.8880000 162.5460000
  83.0300000  76.2100000 163.5510000  52.5930000  41.6770000 128.0150000
  53.5240000  41.8270000 128.1800000  52.4110000  40.8300000 128.4230000
  85.0590000  81.9770000 159.1430000  85.4350000  82.6490000 159.7100000
  85.2570000  81.1510000 159.5850000  59.5500000  62.9050000 161.5190000
  59.7540000  63.4970000 160.7960000  58.5980000  62.8090000 161.4890000
  68.5830000  57.8710000 144.6030000  68.6120000  58.7290000 144.1800000
  67.7120000  57.8280000 144.9990000  52.0420000  50.3960000 124.7480000
  51.8680000  50.6410000 123.8400000  52.4030000  51.1890000 125.1460000
  71.5550000  53.7860000 147.9510000  72.4010000  54.2330000 147.9810000
  71.5050000  53.3130000 148.7820000  65.3740000  80.8800000 157.7240000
  65.6760000  80.9050000 156.8160000  66.0530000  81.3440000 158.2150000
  62.9820000  71.9290000 154.3340000  63.9090000  71.6920000 154.3410000
  62.9750000  72.8620000 154.1200000  67.0520000  31.9430000 123.5000000
  66.9010000  31.0010000 123.5830000  67.3100000  32.2230000 124.3790000
  68.6100000  65.9800000 135.0600000  67.9950000  65.2790000 135.2770000
  68.0590000  66.7540000 134.9420000  72.5140000  87.9990000 137.1520000
  72.9150000  87.3990000 137.7810000  72.8530000  88.8610000 137.3930000
  85.9010000  46.3550000 147.4850000  86.2690000  46.2960000 146.6040000
  85.1350000  46.9210000 147.3880000  36.9210000  51.5660000 127.4550000
  36.9790000  50.8120000 126.8700000  37.8030000  51.9390000 127.4550000
  31.0000000  53.3340000 153.4680000  31.0810000  52.5240000 152.9650000
  31.2210000  53.0820000 154.3650000  55.2310000  69.1640000 155.0520000
  54.8770000  69.5830000 155.8360000  56.0820000  68.8220000 155.3270000
  71.4930000  53.7060000 151.5390000  71.2000000  52.9910000 152.1040000
  71.2940000  54.5000000 152.0350000  62.2550000  74.7540000 146.3800000
  61.6950000  74.9390000 145.6270000  61.7640000  75.0870000 147.1320000
  38.2460000  45.1790000 126.6100000  38.4050000  44.5270000 125.9270000
  38.9220000  45.8430000 126.4690000  67.8240000  50.6470000 150.7490000
  68.4060000  49.9090000 150.9300000  68.2260000  51.3870000 151.2050000
  59.6710000  58.1250000 151.3220000  59.2670000  57.2790000 151.5130000
  59.4870000  58.2750000 150.3940000  58.4420000  79.6810000 133.3420000
  57.9790000  78.9190000 132.9950000  57.7850000  80.1430000 133.8640000
  85.5860000  78.1780000 160.9450000  84.9480000  78.8010000 161.2930000
  85.3300000  78.0580000 160.0310000  33.3980000  49.6910000 130.9240000
  34.2760000  50.0480000 131.0540000  32.8260000  50.4590000 130.9060000
  63.5830000  62.2220000 152.0170000  63.7820000  61.2860000 152.0530000
  64.4380000  62.6450000 151.9280000  66.1800000  71.4810000 134.5520000
  66.7910000  71.5400000 135.2860000  66.0390000  70.5410000 134.4320000
  63.6350000  83.6110000 156.2030000  64.4610000  83.4140000 156.6440000
  63.0620000  82.8770000 156.4280000  80.8380000  37.2020000 163.8840000
  80.8760000  36.5290000 163.2050000  79.9040000  37.3740000 164.0000000
  81.6290000  44.3320000 126.8720000  80.9500000  44.0990000 126.2400000
  82.0910000  43.5100000 127.0410000  33.6100000  45.9410000 147.3860000
  33.3570000  45.5190000 148.2070000  33.0770000  46.7350000 147.3510000
  64.3660000  51.7610000 161.4680000  63.4560000  52.0590000 161.4660000
  64.8830000  52.5660000 161.4570000  70.7650000  56.7220000 154.0300000
  71.6580000  56.8010000 153.6940000  70.7050000  55.8190000 154.3400000
  31.2330000  63.0710000 158.3270000  31.9350000  63.0830000 158.9780000
  31.0000000  62.1460000 158.2420000  38.5470000  41.4730000 133.5680000
  39.2900000  41.6870000 134.1310000  38.1770000  40.6770000 133.9510000
  43.1370000  34.6750000 160.7320000  42.6380000  34.3040000 161.4590000
  42.4900000  35.1620000 160.2210000  72.9040000  85.2660000 132.3740000
  73.2380000  84.6680000 131.7060000  73.4700000  86.0360000 132.3120000
  69.3890000  66.9450000 146.9980000  68.5850000  66.7530000 147.4800000
  69.9870000  66.2370000 147.2380000  38.2110000  70.1130000 134.1150000
  38.7720000  70.3980000 134.8360000  38.3680000  70.7530000 133.4200000
  56.2180000  56.2430000 158.7110000  55.4720000  56.0400000 159.2740000
  56.7550000  55.4510000 158.7290000  52.1050000  88.4680000 125.3680000
  51.8700000  89.0000000 126.1280000  51.8430000  88.9970000 124.6140000
  35.6560000  71.7790000 123.5890000  35.7970000  70.8370000 123.5000000
  36.5310000  72.1610000 123.5130000  37.8130000  45.5730000 151.7250000
  38.6640000  45.3930000 151.3270000  37.9540000  46.3660000 152.2440000
  37.8670000  44.7380000 161.7350000  38.6600000  44.2300000 161.9020000
  37.2340000  44.4110000 162.3750000  53.1180000  88.9430000 152.0110000
  52.2640000  89.0000000 151.5820000  53.3490000  88.0150000 151.9620000
  46.1620000  55.0950000 150.8890000  46.9540000  55.3890000 150.4400000
  46.4820000  54.6090000 151.6490000  82.3240000  79.1200000 133.0450000
  81.9240000  79.8130000 132.5200000  83.1730000  79.4760000 133.3070000
  34.5870000  86.5080000 123.5000000  35.5130000  86.3860000 123.7110000
  34.2110000  85.6290000 123.5540000  34.3910000  64.6770000 123.8210000
  34.7920000  64.4280000 124.6530000  33.9830000  63.8720000 123.5000000
  74.2110000  64.5060000 131.7110000  73.5610000  65.2080000 131.7080000
  73.6960000  63.7010000 131.7660000  49.4300000  79.0560000 144.5250000
  48.9220000  79.0260000 145.3360000  49.0050000  79.7360000 144.0010000
  33.0250000  47.0160000 123.7320000  32.8080000  46.1130000 123.5000000
  32.8890000  47.0600000 124.6790000  73.4760000  62.8190000 151.3540000
  74.0630000  62.7920000 152.1090000  72.9530000  63.6110000 151.4850000
  86.3580000  76.8430000 132.2640000  85.7300000  76.1570000 132.4880000
  85.8250000  77.6320000 132.1620000  85.9770000  59.8360000 146.5470000
  85.2550000  59.9240000 145.9250000  86.5150000  60.6150000 146.4020000
  36.7640000  86.1040000 125.9730000  36.8380000  86.4000000 126.8800000
  37.4750000  86.5530000 125.5150000  78.2190000  61.4270000 155.0230000
  79.0630000  61.8770000 154.9860000  77.9510000  61.3440000 154.1080000
  45.7730000  82.4490000 142.4010000  44.9190000  82.8810000 142.3820000
  45.5900000  81.5700000 142.7350000  47.7190000  47.3380000 158.7700000
  48.6670000  47.2190000 158.8370000  47.3650000  46.4480000 158.7730000
  33.0500000  47.4660000 155.3860000  33.1690000  46.5240000 155.5080000
  33.8610000  47.8550000 155.7150000  62.6690000  52.5450000 148.0570000
  62.9010000  52.6130000 147.1310000  63.5100000  52.5560000 148.5160000
  79.7230000  75.2640000 142.7730000  79.4960000  75.1270000 141.8540000
  79.8690000  76.2080000 142.8460000  53.8450000  76.5310000 148.5470000
  53.1030000  76.8200000 149.0780000  53.5430000  76.6210000 147.6430000
  88.9460000  43.1430000 123.7690000  89.0000000  44.0600000 123.5000000
  88.8070000  43.1790000 124.7160000  73.5680000  41.7910000 127.1540000
  74.1650000  41.5520000 127.8640000  73.8200000  41.2200000 126.4270000
  81.7720000  87.6220000 158.7000000  81.0740000  86.9710000 158.6240000
  82.5750000  87.1060000 158.7710000  88.9690000  57.4150000 134.3560000
  88.6480000  57.0680000 133.5240000  89.0000000  56.6550000 134.9370000
  61.8380000  41.6350000 151.1130000  62.4050000  42.0920000 151.7340000
  61.6790000  42.2750000 150.4180000  88.8500000  37.8800000 140.0210000
  89.0000000  38.2910000 139.1700000  89.0000000  36.9470000 139.8670000
  39.7670000  88.4100000 136.2350000  39.6160000  88.9830000 136.9860000
  40.0480000  89.0000000 135.5350000  75.8180000  52.8950000 155.1530000
  75.5170000  53.2420000 155.9920000  75.8780000  53.6630000 154.5840000
  78.4630000  36.1350000 159.3700000  78.7800000  37.0380000 159.3620000
  77.5230000  36.2090000 159.2010000  58.0000000  49.1760000 123.5000000
  57.2980000  49.3810000 124.1170000  58.6920000  48.7960000 124.0420000
  33.5920000  47.7090000 149.9010000  33.4290000  48.6180000 150.1530000
  34.4680000  47.7200000 149.5160000  66.4490000  42.9280000 142.8520000
  66.2900000  42.3130000 143.5680000  66.9120000  43.6580000 143.2620000
  88.3070000  49.4840000 139.4800000  88.3110000  49.2500000 138.5520000
  88.9830000  50.1560000 139.5610000  45.3540000  84.8090000 161.5430000
  46.2980000  84.6480000 161.5400000  45.2740000  85.7630000 161.5470000
  72.5330000  46.3740000 142.5230000  72.4980000  45.4170000 142.5200000
  73.1260000  46.5950000 141.8050000  37.3780000  56.7560000 126.0360000
  38.0060000  56.1120000 125.7090000  36.7030000  56.2340000 126.4710000
  51.7580000  61.9620000 131.0060000  50.9440000  61.5080000 131.2240000
  51.8540000  62.6240000 131.6910000  75.5770000  86.6430000 149.7740000
  74.8900000  86.4270000 150.4050000  75.1050000  86.9650000 149.0060000
  34.7980000  37.5710000 144.8790000  35.4810000  37.9740000 145.4140000
  34.9420000  36.6290000 144.9760000  88.0510000  53.9180000 149.5800000
  89.0000000  53.8480000 149.6860000  87.7120000  53.9580000 150.4740000
  31.0000000  63.0610000 151.2050000  31.0260000  62.4180000 150.4960000
  31.7430000  62.8320000 151.7640000  47.9920000  60.3490000 142.0250000
  48.0410000  61.2280000 141.6490000  48.1970000  60.4730000 142.9520000
  84.0930000  62.8900000 123.8920000  83.4230000  63.4500000 123.5000000
  83.6460000  62.4540000 124.6180000  35.0570000  61.8350000 129.8050000
  34.9520000  62.5190000 129.1440000  34.4660000  61.1360000 129.5240000
  83.8970000  33.7160000 147.7650000  83.1000000  33.7940000 148.2880000
  83.8450000  32.8430000 147.3750000  46.6400000  70.1220000 130.3440000
  47.5070000  69.7980000 130.1020000  46.3370000  69.5140000 131.0200000
  76.7390000  88.5760000 152.1360000  76.8050000  89.0000000 152.9910000
  77.6140000  88.6660000 151.7550000  77.2310000  54.7110000 140.4260000
  76.8730000  54.9030000 139.5600000  78.0490000  54.2450000 140.2500000
  76.6460000  61.4400000 150.4040000  77.0090000  61.4240000 149.5180000
  75.8110000  60.9770000 150.3280000  34.5570000  60.7770000 146.3760000
  34.3000000  60.6390000 147.2870000  34.1000000  60.0890000 145.8910000
  67.7010000  51.6850000 156.8940000  67.7300000  52.4900000 156.3780000
  67.3740000  51.9600000 157.7500000  84.3040000  52.7790000 139.5800000
  85.0620000  53.2280000 139.9550000  84.3680000  52.9450000 138.6390000
  34.7610000  51.1180000 123.9550000  33.9200000  51.0870000 123.5000000
  34.8280000  50.2690000 124.3940000  58.1210000  51.2340000 151.3140000
  57.2300000  51.5740000 151.2320000  58.2890000  51.2240000 152.2560000
  68.7300000  34.6300000 133.3320000  68.9970000  35.0030000 132.4930000
  69.2610000  35.0930000 133.9810000  68.7680000  48.7150000 130.6280000
  69.6350000  48.3210000 130.7190000  68.8240000  49.5340000 131.1210000
  67.2670000  65.8120000 137.8910000  68.2180000  65.9160000 137.8920000
  66.9410000  66.5920000 137.4410000  83.0890000  57.4450000 157.0030000
  82.5810000  58.2500000 156.9060000  82.7010000  57.0060000 157.7600000
  56.9880000  85.8590000 123.5750000  56.1390000  85.4210000 123.5210000
  57.6290000  85.1520000 123.5000000  75.0650000  52.2920000 162.6030000
  75.5670000  53.0670000 162.3520000  75.0830000  52.2940000 163.5610000
  55.2030000  68.7900000 161.2460000  55.5900000  69.4680000 161.7980000
  55.2530000  69.1450000 160.3580000  41.0800000  88.6360000 151.7540000
  40.7920000  89.0000000 152.5910000  41.9560000  89.0000000 151.6230000
  80.9890000  69.6820000 130.4520000  80.6200000  70.5360000 130.6770000
  80.2570000  69.1970000 130.0700000  53.9410000  53.8740000 126.0670000
  54.2970000  52.9900000 125.9810000  52.9920000  53.7500000 126.0810000
  82.2040000  57.5650000 161.5900000  82.1290000  57.1380000 160.7370000
  81.4320000  57.2720000 162.0740000  38.8150000  31.2200000 163.8710000
  38.5340000  32.1300000 163.7770000  39.7620000  31.2740000 164.0000000
  61.5160000  36.3550000 146.6880000  60.9640000  37.0860000 146.9640000
  61.1040000  35.5830000 147.0770000  70.2670000  42.1290000 145.5990000
  70.8760000  42.5920000 146.1750000  69.9580000  42.7990000 144.9890000
  70.0480000  51.9300000 155.6290000  70.8420000  52.4290000 155.4380000
  70.2320000  51.4980000 156.4640000  64.1980000  50.7790000 128.3400000
  64.5760000  49.9270000 128.1250000  63.2620000  50.6060000 128.4500000
  39.5090000  37.3960000 146.1320000  38.9780000  37.9050000 146.7450000
  39.0780000  37.5150000 145.2850000  82.4580000  41.5490000 135.6660000
  83.3130000  41.9770000 135.6120000  82.6610000  40.6190000 135.7660000
  55.3320000  57.1820000 163.9010000  55.9770000  57.8880000 163.9390000
  54.4880000  57.6240000 164.0000000  40.7350000  35.3660000 157.3130000
  41.5340000  35.4160000 157.8370000  40.6230000  36.2490000 156.9610000
  40.0720000  85.9750000 125.2790000  39.8830000  86.0830000 124.3470000
  40.9080000  86.4220000 125.4080000  71.2120000  57.8030000 140.3970000
  70.4840000  57.2740000 140.0700000  71.9580000  57.5420000 139.8570000
  59.3190000  31.0000000 142.2870000  58.5090000  31.0500000 142.7950000
  59.0320000  31.0370000 141.3740000  70.4250000  79.7200000 140.4320000
  71.0940000  79.1920000 140.8680000  69.6030000  79.2600000 140.6100000
  80.3660000  81.4260000 163.4280000  79.6080000  81.5500000 163.9990000
  81.0390000  81.0570000 164.0000000  46.4490000  57.4210000 152.5520000
  46.6160000  58.2820000 152.1690000  47.3180000  57.0330000 152.6590000
  82.3620000  86.3510000 127.6870000  81.7380000  86.1750000 128.3910000
  81.8190000  86.4480000 126.9050000  40.6540000  81.5130000 130.3960000
  40.1840000  80.6850000 130.2940000  41.5790000  81.2640000 130.4030000
  60.1650000  70.0110000 157.9280000  59.7580000  69.8580000 158.7810000
  59.8230000  70.8610000 157.6480000  77.7710000  58.9430000 136.8830000
  78.4890000  58.6430000 136.3240000  77.0580000  58.3290000 136.7060000
  61.9520000  82.6060000 150.7580000  61.6390000  83.4550000 150.4460000
  62.1330000  82.7440000 151.6890000  31.8440000  31.0070000 163.4140000
  31.0890000  31.0700000 163.9980000  32.6020000  31.0000000 164.0000000
  31.1090000  31.0140000 153.8360000  31.0120000  31.0090000 152.8840000
  31.0000000  31.9330000 154.0830000  41.0060000  66.4870000 159.2670000
  40.1490000  66.0610000 159.2560000  40.8790000  67.2690000 159.8040000
  71.1840000  61.2780000 150.4410000  70.8050000  62.0520000 150.0240000
  70.4920000  60.6180000 150.3970000  49.2320000  72.3460000 126.4380000
  48.4290000  72.3400000 125.9170000  48.9720000  71.9770000 127.2830000
  84.7050000  35.4240000 132.9550000  84.0430000  35.0650000 132.3630000
  84.5350000  36.3660000 132.9620000  48.4240000  53.3630000 150.5430000
  48.0860000  52.7280000 151.1730000  48.9400000  52.8400000 149.9280000
  49.5360000  83.1540000 130.3280000  49.1290000  82.2890000 130.3250000
  48.8310000  83.7510000 130.5820000  69.4560000  71.9290000 132.2320000
  69.9350000  71.1510000 131.9500000  70.1340000  72.5890000 132.3800000
  36.6150000  49.2990000 129.5970000  36.3640000  48.4100000 129.8440000
  37.0910000  49.1950000 128.7730000  74.8480000  81.0030000 138.9050000
  75.2840000  80.8860000 138.0610000  73.9340000  81.1760000 138.6810000
  39.9400000  33.9670000 148.3970000  40.5660000  33.2970000 148.6720000
  39.1310000  33.4850000 148.2260000  84.9060000  57.2510000 162.7880000
  85.1090000  56.6760000 163.5260000  85.6480000  57.1470000 162.1920000
  74.9390000  55.6650000 158.5790000  74.0990000  55.3600000 158.2370000
  74.7060000  56.2460000 159.3040000  48.1210000  60.2610000 163.7740000
  48.5920000  61.0670000 163.9820000  47.2100000  60.4490000 164.0000000
  34.3660000  87.8010000 126.7070000  34.3570000  87.3290000 125.8750000
  34.1300000  88.7000000 126.4760000  75.2640000  65.5870000 133.8810000
  74.7680000  64.8070000 134.1290000  74.6220000  66.2970000 133.9040000
  44.8310000  69.7090000 139.9930000  43.9860000  69.8390000 140.4230000
  44.6340000  69.1460000 139.2430000  77.5660000  31.0000000 145.1230000
  78.4410000  31.3820000 145.1880000  77.1410000  31.2300000 145.9500000
  88.2780000  31.3530000 156.9080000  88.9990000  31.0000000 156.3860000
  87.4870000  31.0420000 156.4660000  71.4960000  82.8540000 139.7400000
  72.0980000  83.5980000 139.7110000  70.8620000  83.0320000 139.0450000
  47.3290000  39.4940000 161.7220000  48.2060000  39.3680000 162.0820000
  47.4530000  40.1040000 160.9940000  31.6400000  67.4160000 128.5530000
  31.0000000  67.7020000 127.9000000  31.6230000  68.1010000 129.2210000
  44.5670000  88.7510000 150.5020000  45.0460000  87.9240000 150.4620000
  43.7860000  88.6030000 149.9670000  81.7020000  37.6620000 140.1380000
  82.3970000  37.5990000 139.4830000  81.0630000  38.2610000 139.7520000
  81.1160000  82.5970000 124.3290000  80.6380000  82.5720000 123.5000000
  80.4850000  82.9450000 124.9600000  56.2660000  36.7000000 163.9820000
  55.8680000  35.8300000 164.0000000  57.2090000  36.5320000 163.9750000
  78.4960000  38.3870000 133.3620000  79.0910000  39.1360000 133.3700000
  78.1330000  38.3600000 134.2480000  39.9180000  60.7580000 141.8400000
  39.1920000  60.3980000 142.3500000  39.9130000  60.2530000 141.0270000
  40.5410000  54.9440000 145.2230000  39.5880000  54.8640000 145.2660000
  40.6950000  55.8740000 145.0520000  85.2100000  36.1900000 153.2030000
  84.9350000  36.9040000 152.6290000  86.1270000  36.3790000 153.4010000
  85.4870000  61.7090000 130.5720000  86.3800000  61.5370000 130.8700000
  85.4960000  61.4850000 129.6410000  79.0920000  33.8030000 145.1070000
  79.5210000  33.5040000 144.3060000  78.1630000  33.8470000 144.8800000
  76.5470000  37.9220000 149.9070000  76.6220000  38.4680000 149.1240000
  76.5010000  38.5460000 150.6310000  86.4100000  47.7360000 131.5010000
  86.2930000  47.6740000 132.4490000  86.6640000  48.6480000 131.3510000
  51.1390000  74.5910000 161.6650000  50.3740000  75.1390000 161.4930000
  51.3520000  74.2020000 160.8160000  51.4150000  56.3870000 128.1110000
  50.7630000  56.6070000 127.4460000  51.9160000  55.6660000 127.7280000
  34.3720000  80.7770000 136.8520000  34.5770000  81.1570000 135.9980000
  33.4180000  80.8250000 136.9140000  31.5670000  62.8670000 154.6850000
  31.0000000  62.4810000 155.3530000  31.0000000  63.4780000 154.2130000
  42.6270000  58.5740000 141.0260000  42.6200000  59.4820000 141.3280000
  43.2990000  58.5540000 140.3430000  39.8840000  57.3340000 161.4890000
  39.2710000  57.5730000 160.7940000  39.8160000  56.3810000 161.5520000
  35.5870000  43.3520000 147.3040000  35.6900000  42.4920000 146.8960000
  35.9200000  43.9680000 146.6500000  31.0020000  33.6490000 163.1250000
  31.0680000  34.3960000 162.5300000  31.0640000  34.0330000 164.0000000
  73.3530000  88.9600000 154.2360000  73.1660000  88.0250000 154.1560000
  74.2780000  89.0000000 154.4780000  80.6250000  82.7620000 142.7670000
  81.1660000  82.1020000 142.3350000  80.2290000  83.2570000 142.0490000
  33.3930000  83.0520000 155.1110000  32.6780000  83.6610000 155.2950000
  33.2300000  82.3090000 155.6920000  78.5640000  74.9740000 148.1630000
  78.7580000  75.0410000 149.0980000  78.1450000  75.8070000 147.9450000
  37.1190000  60.3430000 123.7710000  38.0120000  60.0090000 123.6830000
  37.2070000  61.2910000 123.6690000  53.1530000  51.3190000 153.0560000
  53.6910000  51.5820000 153.8020000  52.3230000  51.0400000 153.4450000
  42.0270000  86.9590000 132.2370000  41.0780000  86.8830000 132.1420000
  42.2170000  87.8740000 132.0280000  53.9740000  67.6170000 129.3260000
  54.7320000  67.0360000 129.3800000  53.2240000  67.0270000 129.2470000
  69.2340000  53.4450000 149.8260000  68.9860000  53.7240000 150.7070000
  68.4170000  53.1390000 149.4320000  84.3940000  44.6180000 146.2590000
  84.5020000  43.7530000 146.6540000  84.7230000  44.5170000 145.3660000
  54.8160000  78.5650000 128.8970000  55.6490000  78.9990000 128.7120000
  54.3560000  79.1670000 129.4820000  43.9960000  39.6720000 159.4470000
  43.3600000  40.3480000 159.6790000  43.4630000  38.9310000 159.1570000
  61.0370000  84.1500000 142.6540000  60.4270000  83.9360000 143.3600000
  60.4750000  84.3810000 141.9140000  40.3130000  46.7710000 135.9880000
  40.5110000  46.9340000 136.9100000  40.7290000  45.9300000 135.7980000
  49.7180000  54.6640000 125.7680000  50.3110000  54.0710000 126.2270000
  49.0960000  54.0850000 125.3240000  62.6410000  60.1270000 126.3140000
  62.6260000  60.5030000 127.1940000  62.0620000  60.6920000 125.8010000
  78.9530000  72.5200000 148.6020000  78.3700000  71.7850000 148.7880000
  79.4360000  72.6560000 149.4180000  40.8540000  44.8130000 147.6800000
  41.7510000  44.7420000 148.0060000  40.9370000  44.7330000 146.7300000
  41.7490000  51.6470000 151.1240000  41.7070000  50.7000000 151.2570000
  41.9940000  51.7500000 150.2050000  36.8560000  58.1420000 163.2280000
  36.6410000  58.7210000 162.4970000  36.8260000  58.7080000 164.0000000
  68.1560000  59.7310000 154.9630000  68.9840000  59.3540000 155.2590000
  68.3740000  60.6320000 154.7250000  38.5510000  47.0980000 149.4350000
  38.0790000  47.6350000 150.0710000  38.8340000  47.7160000 148.7610000
  66.6950000  55.4360000 157.7610000  66.9960000  54.7690000 157.1440000
  67.4950000  55.7500000 158.1840000  85.5210000  31.1170000 151.5820000
  84.6130000  31.4190000 151.6040000  86.0420000  31.9200000 151.5880000
  82.2310000  71.9040000 152.8150000  81.6000000  72.2060000 152.1620000
  82.9100000  72.5790000 152.8230000  58.1050000  35.8730000 126.6960000
  58.6830000  36.6000000 126.9280000  58.6710000  35.2560000 126.2310000
  52.4480000  54.5500000 160.6880000  53.3860000  54.6950000 160.5700000
  52.1870000  54.0370000 159.9220000  39.8230000  69.0230000 139.6950000
  40.7610000  68.8610000 139.5980000  39.7530000  69.9730000 139.7920000
  61.2600000  49.5090000 126.6450000  60.8430000  49.3870000 125.7920000
  61.5240000  50.4290000 126.6530000  42.0440000  67.5480000 141.4570000
  42.0840000  68.3110000 142.0320000  42.6780000  67.7360000 140.7640000
  39.1540000  42.9130000 130.5250000  38.3350000  42.4740000 130.2980000
  39.2730000  42.7320000 131.4580000  55.8860000  61.9400000 147.3310000
  56.0680000  62.8790000 147.3380000  54.9320000  61.8800000 147.3810000
  86.9870000  39.7580000 156.6060000  86.3760000  40.4920000 156.5570000
  86.4840000  39.0540000 157.0160000  68.3850000  80.6620000 143.4130000
  67.7620000  80.9730000 142.7570000  69.2440000  80.8910000 143.0550000
  76.6040000  64.4030000 144.1310000  76.9880000  63.6790000 143.6380000
  76.7730000  64.1850000 145.0480000  60.2430000  76.8580000 141.8490000
  59.6510000  76.1630000 142.1360000  60.9600000  76.8390000 142.4830000
  52.9240000  34.1350000 128.9350000  52.4520000  33.8740000 129.7250000
  52.4390000  33.7250000 128.2180000  63.7220000  40.4100000 149.0050000
  62.7780000  40.2860000 148.9080000  63.8270000  41.3510000 149.1480000
  61.8190000  73.3500000 133.0000000  61.3230000  72.7140000 133.5150000
  61.4110000  74.1920000 133.2020000  43.6690000  50.5080000 161.8060000
  43.3270000  51.1770000 162.3990000  44.5950000  50.7300000 161.7020000
  50.2360000  88.9890000 148.9320000  50.4480000  88.9760000 149.8650000
  49.2790000  88.9990000 148.9030000  59.4970000  68.0930000 147.6990000
  59.0700000  68.9430000 147.8010000  59.1980000  67.7740000 146.8470000
  34.0200000  40.6220000 146.5820000  33.3360000  40.4710000 147.2340000
  33.5680000  40.5580000 145.7400000  73.6910000  32.3050000 158.0940000
  73.7610000  32.8430000 157.3060000  73.9920000  32.8760000 158.8010000
  55.7690000  58.2090000 142.3240000  55.1330000  58.1020000 141.6170000
  56.1740000  59.0600000 142.1560000  49.7900000  31.2870000 161.4910000
  49.5480000  31.6170000 160.6260000  50.6980000  31.0000000 161.3930000
  31.8300000  37.9970000 143.1660000  31.0000000  37.9260000 142.6930000
  31.5860000  38.3290000 144.0300000  75.8560000  34.7440000 126.0480000
  75.0680000  34.2980000 126.3580000  76.3610000  34.0600000 125.6080000
  88.9110000  52.5740000 130.2410000  89.0000000  53.4810000 129.9480000
  88.0120000  52.5140000 130.5650000  87.1830000  48.0550000 141.5200000
  86.8490000  47.7640000 140.6720000  86.6710000  48.8380000 141.7240000
  35.6670000  60.3340000 140.6060000  36.5480000  60.6590000 140.7870000
  35.0900000  60.9190000 141.0980000  72.0150000  48.8230000 142.4420000
  72.0030000  48.9660000 141.4960000  72.2420000  49.6770000 142.8110000
  56.8730000  76.8360000 148.0550000  56.6760000  77.3550000 147.2760000
  56.6120000  77.3950000 148.7880000  50.1300000  70.7800000 137.0700000
  50.7200000  70.1250000 136.6960000  50.6870000  71.3050000 137.6440000
  40.2970000  72.8720000 148.5860000  39.9420000  72.1430000 148.0780000
  41.2090000  72.9410000 148.3000000  33.2690000  81.8710000 133.1390000
  32.7400000  82.6160000 132.8550000  33.7870000  82.2100000 133.8700000
  70.1840000  88.1000000 126.7350000  70.2440000  87.6920000 125.8710000
  70.4820000  87.4220000 127.3420000  34.9270000  39.6470000 157.0250000
  35.2890000  40.5330000 157.0310000  35.6940000  39.0750000 156.9960000
  62.3820000  35.4700000 153.1330000  61.7790000  36.1050000 153.5180000
  62.3570000  35.6540000 152.1930000  37.3430000  47.1210000 143.6750000
  37.8910000  46.5710000 144.2350000  37.2840000  46.6390000 142.8490000
  73.8160000  49.5290000 148.8350000  73.5430000  50.0930000 148.1120000
  73.9110000  48.6620000 148.4400000  58.0190000  80.7590000 128.8630000
  57.2930000  80.9920000 128.2850000  58.8040000  80.9090000 128.3350000
  49.8780000  40.8900000 137.3210000  49.7190000  39.9470000 137.3550000
  50.8180000  40.9690000 137.1550000  65.2490000  45.3900000 152.9980000
  66.0780000  45.0160000 152.6980000  64.6690000  44.6350000 153.1010000
  31.6070000  89.0000000 137.5840000  31.0020000  88.9030000 136.8490000
  31.0740000  88.8260000 138.3600000  81.4280000  82.2530000 149.9340000
  81.3620000  81.3270000 149.7010000  80.5210000  82.5400000 150.0370000
  57.5850000  86.4760000 156.6310000  57.7830000  85.7850000 157.2630000
  57.9280000  86.1460000 155.8000000  43.6860000  65.3390000 154.3590000
  43.4580000  65.3420000 155.2890000  43.3670000  64.4970000 154.0350000
  49.2030000  72.9570000 161.1020000  49.5590000  72.2070000 160.6260000
  48.7120000  73.4490000 160.4440000  49.2320000  81.5200000 136.2800000
  49.6130000  82.2060000 135.7320000  49.8750000  81.3830000 136.9760000
  51.1680000  67.5450000 150.8040000  50.8390000  68.0310000 150.0490000
  50.4310000  66.9970000 151.0760000  85.8220000  52.7880000 153.0680000
  86.1580000  53.2510000 152.3010000  86.5220000  52.1790000 153.3060000
  75.2360000  83.7540000 124.7910000  74.6360000  84.4790000 124.9650000
  75.1590000  83.6000000 123.8490000  53.4600000  33.6660000 125.7890000
  53.2900000  34.0960000 124.9510000  53.9930000  32.9030000 125.5630000
  78.7720000  48.9280000 146.1160000  79.3680000  49.0380000 145.3760000
  78.2760000  49.7470000 146.1480000  54.7190000  68.9960000 144.6500000
  53.9060000  68.7160000 144.2310000  55.3640000  69.0030000 143.9430000
  46.2400000  36.2030000 138.1210000  45.7600000  36.2620000 138.9470000
  45.5710000  35.9870000 137.4700000  39.7240000  34.2750000 125.3820000
  39.2970000  34.5780000 124.5810000  39.2610000  33.4680000 125.6090000
  74.7610000  78.3030000 154.3030000  75.6840000  78.2500000 154.0540000
  74.5490000  77.4260000 154.6240000  81.5240000  64.2290000 149.0060000
  82.1690000  64.9070000 148.8080000  81.5870000  63.6170000 148.2720000
  37.9410000  32.2640000 161.3520000  37.8470000  31.3250000 161.5120000
  37.0430000  32.5870000 161.2850000  58.0140000  57.7920000 159.6130000
  57.8650000  57.4130000 160.4800000  58.9060000  57.5270000 159.3860000
  58.2770000  88.9390000 149.3640000  57.3680000  89.0000000 149.0700000
  58.7930000  89.0000000 148.5600000  80.5930000  72.8300000 124.4750000
  80.7900000  72.9680000 123.5490000  81.3390000  72.3290000 124.8070000
  50.4480000  84.2920000 146.4550000  49.7810000  84.2410000 147.1390000
  50.8170000  83.4090000 146.4140000  80.5820000  57.6040000 134.6570000
  80.0980000  58.3970000 134.4270000  80.4740000  57.0280000 133.9000000
  32.7900000  43.6440000 126.9330000  32.4410000  43.6560000 126.0420000
  33.3050000  44.4480000 127.0000000  68.6760000  70.0280000 141.9240000
  69.4770000  69.5060000 141.8940000  68.9690000  70.9260000 141.7660000
  67.6040000  32.8220000 143.5080000  68.5440000  32.9840000 143.4290000
  67.2360000  33.1430000 142.6850000  71.8240000  76.1750000 151.3340000
  71.6720000  77.0960000 151.1250000  72.1590000  76.1840000 152.2310000
  52.3560000  36.7640000 149.3550000  52.2850000  37.1410000 150.2320000
  51.9460000  37.4120000 148.7810000  76.1330000  60.6450000 138.0070000
  76.6300000  61.4600000 137.9330000  75.4300000  60.8480000 138.6240000
  42.3410000  82.6200000 151.8270000  42.7490000  83.1080000 152.5420000
  42.5540000  83.1240000 151.0410000  82.6070000  45.9280000 123.8880000
  81.7830000  45.6330000 123.5000000  82.3410000  46.5170000 124.5950000
  66.9150000  84.7330000 126.0850000  66.8270000  83.7820000 126.0270000
  67.8450000  84.8980000 125.9310000  88.8840000  75.6770000 156.8830000
  88.1180000  75.4500000 157.4100000  88.7740000  75.1780000 156.0730000
  69.4840000  40.8390000 123.5600000  69.0810000  41.7070000 123.5460000
  70.4240000  41.0090000 123.5000000  88.9020000  51.0390000 145.4880000
  89.0000000  51.5870000 144.7090000  89.0000000  50.1430000 145.1650000
  73.5050000  54.0450000 128.2480000  73.1910000  54.1100000 129.1500000
  72.8670000  54.5430000 127.7360000  35.4870000  41.6870000 138.1000000
  36.1430000  41.0900000 138.4590000  35.9570000  42.5100000 137.9690000
  48.6740000  62.0540000 157.4400000  49.4680000  61.9350000 157.9600000
  48.5480000  61.2150000 156.9970000  61.0110000  58.7340000 137.5310000
  61.0220000  57.8160000 137.2630000  60.8700000  58.7060000 138.4780000
  77.0810000  63.0930000 140.8760000  76.4490000  62.8710000 140.1920000
  77.8770000  63.3270000 140.3990000  88.6320000  58.3630000 143.7970000
  89.0000000  58.8770000 143.0780000  88.6940000  58.9380000 144.5600000
  59.3590000  56.0670000 132.9540000  58.6800000  56.6280000 132.5800000
  58.8920000  55.2770000 133.2290000  39.9760000  56.3500000 136.6030000
  40.3180000  57.2420000 136.5500000  39.0240000  56.4570000 136.6070000
  48.5520000  64.7480000 153.6500000  48.8510000  65.1770000 152.8490000
  49.3570000  64.4830000 154.0950000  33.7440000  74.6570000 123.5000000
  34.2940000  73.8750000 123.5310000  34.3620000  75.3870000 123.5340000
  45.3320000  48.5680000 138.1940000  46.1910000  48.1740000 138.3480000
  45.2450000  49.2290000 138.8820000  75.7670000  57.8330000 138.7900000
  76.4150000  57.9310000 139.4870000  75.8710000  56.9290000 138.4920000
  82.1300000  68.2170000 158.0930000  81.1850000  68.2880000 157.9580000
  82.3040000  68.7580000 158.8640000  39.8990000  83.5440000 123.5710000
  40.8540000  83.5360000 123.5000000  39.7280000  83.4200000 124.5050000
  79.3100000  70.7240000 134.1880000  79.5280000  70.6410000 133.2600000
  79.6010000  69.9000000 134.5780000  56.8990000  49.9260000 146.4780000
  56.2760000  50.3710000 145.9040000  56.5270000  50.0210000 147.3550000
  78.1440000  66.4460000 157.8270000  78.7000000  67.2230000 157.8760000
  77.2510000  66.7890000 157.8320000  45.5220000  81.7540000 147.8880000
  46.4410000  81.8650000 147.6440000  45.5430000  81.5810000 148.8300000
  40.1870000  45.2700000 130.7480000  40.8530000  45.0530000 130.0970000
  40.6290000  45.8640000 131.3560000  55.0450000  64.2840000 126.7350000
  54.6500000  64.6080000 127.5450000  54.4660000  63.5760000 126.4520000
  58.9920000  67.5670000 133.5340000  59.8010000  67.7070000 134.0250000
  58.7310000  68.4420000 133.2460000  34.8690000  73.6940000 149.1400000
  34.0420000  74.1750000 149.1810000  35.1780000  73.6700000 150.0450000
  62.3680000  66.1410000 123.5260000  61.6230000  66.7410000 123.5190000
  61.9740000  65.2680000 123.5000000  66.4350000  73.2570000 140.5400000
  66.1780000  74.0960000 140.1580000  67.3700000  73.3510000 140.7200000
  38.8000000  61.3840000 128.8920000  37.9110000  61.1750000 128.6050000
  39.1170000  62.0190000 128.2490000  57.6040000  72.7780000 128.6160000
  57.2450000  71.8920000 128.6410000  58.4860000  72.6900000 128.9770000
  61.7430000  48.2630000 138.4400000  62.1860000  49.1060000 138.5430000
  62.4470000  47.6160000 138.4900000  78.5860000  35.6940000 127.0760000
  79.5170000  35.8280000 127.2530000  78.5450000  35.4900000 126.1420000
  62.1270000  31.4970000 150.2610000  61.3310000  31.0020000 150.0680000
  62.5560000  31.0000000 150.9570000  56.4740000  55.1470000 143.4900000
  57.1850000  55.0410000 144.1220000  56.2470000  56.0760000 143.5380000
  56.7120000  72.6030000 123.5000000  56.6070000  73.5550000 123.5110000
  55.8160000  72.2640000 123.5110000  39.4660000  68.1480000 128.2110000
  38.7890000  67.6220000 127.7880000  39.4630000  67.8550000 129.1230000
  84.8730000  64.2990000 161.5950000  84.1260000  64.8960000 161.6060000
  85.0250000  64.1210000 160.6670000  69.9690000  80.4930000 124.0320000
  69.5780000  79.8000000 123.5000000  69.7470000  81.3030000 123.5720000
  69.3360000  88.3630000 141.5030000  69.9780000  88.8870000 141.9830000
  68.8510000  89.0000000 140.9780000  34.9460000  56.1480000 164.0000000
  35.8860000  55.9680000 163.9910000  34.5430000  55.3380000 163.6860000
  54.0360000  88.0080000 140.3230000  54.0820000  88.0060000 141.2790000
  53.1070000  88.1330000 140.1280000  47.3820000  86.2330000 124.1720000
  46.4890000  86.5710000 124.2410000  47.2780000  85.2810000 124.1570000
  43.0400000  80.7440000 156.1890000  43.0900000  80.0930000 155.4890000
  43.7840000  80.5420000 156.7570000  69.4470000  78.3940000 160.8770000
  68.5660000  78.4890000 161.2400000  69.9340000  79.1370000 161.2330000
  31.9250000  33.4870000 135.4320000  31.9250000  34.4420000 135.3630000
  31.0000000  33.2530000 135.5180000  57.5650000  86.3890000 150.6100000
  57.3480000  85.4660000 150.7320000  58.5220000  86.4070000 150.5730000
  60.0170000  71.4740000 138.3670000  60.8830000  71.6750000 138.0110000
  60.1770000  70.7820000 139.0090000  41.3240000  68.0940000 163.9980000
  40.7280000  68.8430000 163.9890000  42.1990000  68.4840000 164.0000000
  48.3210000  68.6340000 146.9540000  48.7890000  68.4710000 146.1350000
  48.3120000  67.7850000 147.3970000  55.5990000  81.4230000 143.3430000
  56.2100000  80.6900000 143.2780000  54.9650000  81.1500000 144.0070000
  42.7430000  61.5870000 137.1800000  43.0430000  61.1300000 136.3950000
  43.4520000  62.1960000 137.3890000  31.0000000  43.0580000 158.3840000
  31.0000000  43.8120000 158.9740000  31.0160000  43.4400000 157.5060000
  69.8240000  79.3610000 153.1950000  69.3600000  78.8220000 153.8350000
  70.1460000  80.1090000 153.6990000  83.8650000  88.5600000 136.2060000
  84.6940000  89.0000000 136.0190000  83.2270000  89.0000000 135.6450000
  53.1800000  36.2300000 143.5540000  53.9030000  36.4090000 144.1550000
  52.7540000  37.0790000 143.4310000  50.8140000  50.9250000 130.7760000
  51.4060000  51.2980000 131.4280000  51.3460000  50.8520000 129.9830000
  66.5510000  44.3990000 126.1560000  66.4030000  45.1550000 125.5890000
  65.7700000  44.3560000 126.7080000  31.0000000  81.9740000 161.1910000
  31.9190000  81.8440000 161.4270000  31.0270000  82.5740000 160.4450000
  50.5850000  75.5540000 149.7650000  50.7990000  75.6450000 148.8360000
  49.6340000  75.4440000 149.7820000  33.8560000  36.9540000 138.2690000
  33.5980000  36.1370000 137.8420000  33.0400000  37.4490000 138.3520000
  31.5830000  64.0070000 163.9980000  31.0000000  63.2500000 163.9480000
  31.0050000  64.7630000 163.8920000  34.7610000  47.4760000 145.6560000
  34.5330000  48.3810000 145.8650000  35.1340000  47.5200000 144.7750000
  63.8410000  35.6760000 147.3070000  64.6010000  36.1400000 147.6560000
  63.8000000  34.8650000 147.8140000  66.5450000  49.8260000 132.5810000
  65.8530000  50.3700000 132.9580000  66.2670000  48.9270000 132.7590000
  66.0100000  53.9480000 147.6350000  65.1180000  54.1010000 147.3260000
  66.1320000  53.0010000 147.5550000  59.8270000  33.4200000 141.9170000
  59.6910000  33.6510000 140.9990000  60.7230000  33.0820000 141.9500000
  84.9960000  37.4590000 158.8280000  84.5130000  37.0000000 158.1410000
  84.5040000  38.2690000 158.9660000  88.4860000  79.5990000 150.7530000
  89.0000000  79.1940000 150.0550000  89.0000000  79.4480000 151.5470000
  50.6890000  34.9550000 146.4790000  51.5640000  35.3040000 146.6440000
  50.6670000  34.1260000 146.9580000  31.5860000  51.4770000 141.1110000
  31.0000000  50.7210000 141.0740000  31.0000000  52.2340000 141.1260000
  56.6840000  31.0470000 127.9660000  56.7720000  31.0000000 127.0140000
  57.3460000  31.6830000 128.2380000  45.2660000  88.0550000 127.6960000
  45.4690000  87.6510000 128.5400000  45.1430000  88.9830000 127.8980000
  45.5650000  45.5120000 136.9950000  45.0160000  46.2430000 137.2790000
  44.9950000  44.9910000 136.4290000  48.9500000  31.0340000 133.0390000
  48.5570000  31.0000000 132.1680000  48.2050000  31.0000000 133.6400000
  52.8310000  83.6550000 133.9390000  53.3510000  83.5230000 133.1470000
  53.2390000  83.0840000 134.5920000  39.2510000  88.0710000 157.3360000
  38.4920000  87.5140000 157.5120000  38.9390000  88.9610000 157.5010000
  71.3290000  81.0670000 150.3290000  72.1240000  81.5740000 150.4960000
  71.1680000  80.5970000 151.1480000  66.9210000  46.2030000 161.5480000
  65.9770000  46.0530000 161.4920000  67.1050000  46.8360000 160.8540000
  36.1410000  41.9210000 155.1340000  35.4380000  42.3880000 154.6820000
  36.8940000  41.9950000 154.5480000  85.2470000  75.0950000 163.9570000
  85.7260000  75.9220000 164.0000000  85.9290000  74.4250000 163.9040000
  69.4580000  54.3580000 157.3690000  70.2340000  54.4270000 156.8130000
  69.5390000  53.5020000 157.7900000  86.9880000  37.3440000 148.7260000
  86.4580000  37.5600000 149.4920000  87.3960000  38.1720000 148.4740000
  53.7510000  66.1200000 135.3720000  54.4880000  65.5760000 135.0950000
  53.2010000  65.5310000 135.8890000  42.9630000  71.4960000 128.5370000
  42.2000000  72.0660000 128.4430000  43.6880000  72.0940000 128.7200000
  72.1850000  33.4830000 127.9480000  72.7940000  33.2660000 127.2430000
  72.3470000  34.4100000 128.1290000  86.3410000  59.8970000 163.8100000
  86.3780000  58.9550000 163.9750000  85.4340000  60.1390000 164.0000000
  88.0720000  75.0360000 132.4850000  87.6240000  74.4260000 133.0700000
  89.0000000  74.9350000 132.6960000  53.2450000  83.8360000 123.9340000
  53.7830000  84.5690000 123.6340000  53.6210000  83.0700000 123.5000000
  52.4650000  45.3730000 147.1440000  53.0860000  44.8120000 147.6090000
  52.0480000  44.7920000 146.5070000  70.9430000  70.2140000 139.2480000
  70.6770000  70.8190000 139.9400000  71.2090000  69.4200000 139.7130000
  45.2920000  36.3150000 124.0010000  44.8450000  36.0900000 124.8170000
  45.3030000  35.4990000 123.5000000  59.7590000  31.0370000 130.3640000
  58.8400000  31.0380000 130.6320000  60.2490000  31.0000000 131.1870000
  81.5620000  76.4370000 148.0100000  82.1280000  75.6810000 147.8530000
  80.7050000  76.1690000 147.6770000  68.4650000  83.4480000 123.5890000
  67.5150000  83.3280000 123.5820000  68.5860000  84.3980000 123.5970000
  60.3930000  50.2690000 156.9620000  60.3370000  51.1470000 156.5860000
  59.5170000  50.1010000 157.3100000  72.5150000  51.9150000 163.9190000
  71.5750000  51.7500000 163.9950000  72.9170000  51.0500000 164.0000000
  41.1100000  45.1530000 139.6250000  40.5880000  45.2620000 138.8310000
  41.0560000  46.0000000 140.0680000  70.3960000  61.9260000 160.0060000
  69.5980000  61.9850000 159.4820000  70.1570000  62.3090000 160.8510000
  41.2790000  59.2660000 137.8530000  41.2660000  59.9800000 138.4890000
  40.8490000  59.6270000 137.0770000  66.4440000  76.7870000 123.5050000
  67.2840000  77.2470000 123.5000000  65.7880000  77.4840000 123.5020000
  77.7880000  55.8150000 153.6510000  76.9290000  55.7060000 153.2450000
  77.6190000  56.3440000 154.4310000  48.8740000  59.6070000 134.7490000
  48.2590000  58.8770000 134.8240000  49.7360000  59.2070000 134.8680000
  79.7660000  63.9120000 128.9820000  79.3690000  63.3610000 128.3080000
  79.7840000  64.7880000 128.5960000  81.6760000  50.4420000 132.0150000
  80.7980000  50.7220000 132.2750000  82.2130000  51.2300000 132.1000000
  52.2820000  86.1620000 154.5710000  52.9890000  86.2880000 153.9380000
  52.6290000  85.5200000 155.1920000  63.0180000  45.7090000 140.9950000
  62.9360000  44.9900000 140.3690000  63.7890000  46.1970000 140.7020000
  52.4320000  66.0070000 141.5200000  52.8570000  66.7880000 141.1640000
  52.5390000  65.3440000 140.8370000  56.8370000  74.2460000 149.3670000
  56.4980000  73.3510000 149.3820000  56.0550000  74.7980000 149.3570000
  61.3250000  33.0250000 157.3870000  61.3900000  33.8690000 157.8350000
  62.1240000  32.5590000 157.6350000  84.9650000  34.8000000 144.0490000
  84.8560000  34.0440000 144.6250000  85.6810000  34.5540000 143.4620000
  37.1320000  31.8160000 158.5950000  37.0380000  31.0000000 159.0860000
  37.2910000  31.5360000 157.6930000  42.1670000  67.9060000 147.3750000
  42.7580000  67.8940000 146.6220000  42.7280000  67.7060000 148.1240000
  51.7810000  86.6410000 138.5520000  52.4340000  86.4510000 137.8780000
  51.1210000  85.9550000 138.4470000  71.5200000  69.9080000 153.1090000
  72.4170000  69.8490000 152.7800000  71.2910000  69.0100000 153.3480000
  75.8230000  31.0000000 158.1680000  76.2780000  31.6480000 158.7060000
  75.8770000  31.3460000 157.2770000  88.5000000  43.0830000 159.9260000
  89.0000000  42.2840000 159.7580000  89.0000000  43.5420000 160.6010000
  59.4720000  62.6340000 130.7380000  59.2670000  61.8850000 130.1790000
  60.1970000  62.3330000 131.2860000  55.0260000  48.6050000 139.1340000
  54.9630000  48.8140000 138.2020000  54.2270000  48.9690000 139.5160000
  63.2800000  73.3750000 143.2160000  64.0250000  73.4340000 142.6170000
  63.0700000  72.4410000 143.2460000  31.5750000  78.8060000 158.1150000
  31.0070000  78.0420000 158.2160000  31.0080000  79.4780000 157.7350000
  33.2780000  71.7290000 127.2450000  33.6760000  71.8630000 128.1050000
  33.3890000  70.7940000 127.0720000  76.0510000  42.9150000 144.6810000
  75.2060000  42.8950000 144.2310000  75.8270000  42.9930000 145.6080000
  56.2230000  65.7590000 141.2930000  56.9010000  65.0930000 141.4070000
  55.5960000  65.3610000 140.6890000  78.0290000  60.0320000 139.5180000
  78.8470000  59.8690000 139.0490000  78.1980000  60.8260000 140.0260000
  85.6630000  68.3040000 161.3170000  86.0470000  68.8890000 161.9700000
  86.4040000  68.0330000 160.7740000  77.7420000  52.4680000 133.6960000
  77.9300000  53.3710000 133.4400000  78.3050000  51.9370000 133.1320000
  31.3520000  62.0210000 147.1410000  31.0000000  62.6000000 147.8170000
  31.3000000  62.5340000 146.3340000  75.2380000  74.2290000 138.3120000
  75.1280000  74.9130000 137.6520000  75.2420000  73.4120000 137.8130000
  88.7300000  33.3390000 128.4350000  88.9470000  33.4600000 129.3590000
  89.0000000  34.1570000 128.0160000  66.0190000  84.3190000 146.0560000
  65.0650000  84.3660000 146.1100000  66.3030000  85.2330000 146.0400000
  58.1730000  40.0660000 140.0540000  58.1100000  39.9760000 139.1030000
  58.5310000  40.9430000 140.1900000  41.3700000  81.0810000 163.9870000
  41.1730000  80.1470000 163.9210000  41.5650000  81.3500000 163.0880000
  56.4360000  48.1520000 152.3380000  56.3130000  47.6680000 151.5220000
  56.5200000  49.0660000 152.0650000  88.8520000  71.2610000 132.6470000
  88.7240000  70.8550000 133.5040000  88.7550000  72.2000000 132.8090000
  75.2570000  82.1080000 152.9710000  75.8030000  81.4510000 153.4020000
  74.4070000  82.0370000 153.4060000  67.3240000  74.0440000 125.7220000
  66.5430000  74.1350000 126.2680000  67.4160000  74.8940000 125.2910000
  52.8040000  48.5800000 152.3160000  52.3730000  47.7290000 152.2360000
  53.7320000  48.3700000 152.4210000  64.0800000  64.8730000 146.7730000
  63.3260000  64.5380000 147.2580000  63.7030000  65.2710000 145.9880000
  47.8200000  48.6980000 132.3250000  47.6190000  48.0550000 131.6450000
  48.2630000  49.4080000 131.8600000  56.3230000  55.0340000 128.6280000
  56.4320000  54.4620000 127.8690000  56.7930000  55.8350000 128.3950000
  65.3310000  76.4950000 138.6830000  64.9910000  76.7060000 139.5520000
  65.0300000  75.6010000 138.5180000  60.5100000  49.5870000 134.5020000
  60.6760000  49.1730000 133.6550000  61.2040000  50.2410000 134.5890000
  68.2830000  64.4940000 155.1070000  68.3910000  63.5430000 155.1070000
  67.3350000  64.6270000 155.0880000  40.5750000  83.7200000 149.2460000
  41.4070000  83.4730000 148.8420000  40.3680000  82.9910000 149.8320000
  58.1170000  39.2300000 136.3910000  57.5410000  38.5680000 136.0110000
  58.7470000  38.7300000 136.9100000  48.2650000  85.4010000 126.4510000
  49.1610000  85.5190000 126.7660000  47.7630000  86.0860000 126.8920000
  64.9180000  60.1140000 137.2710000  65.5190000  60.8280000 137.0570000
  64.1330000  60.2980000 136.7550000  53.9530000  79.1340000 155.6790000
  54.3480000  79.9980000 155.7950000  53.4750000  78.9770000 156.4940000
  54.0410000  84.3190000 161.0930000  53.1730000  84.3030000 161.4950000
  54.1910000  85.2420000 160.8830000  88.4400000  46.7300000 138.3850000
  89.0000000  47.0170000 137.6640000  88.9990000  46.7860000 139.1600000
  36.1660000  88.4150000 158.1160000  36.4410000  89.0000000 157.4100000
  35.8360000  89.0000000 158.7980000  53.5000000  70.0200000 163.9860000
  54.4510000  69.9070000 164.0000000  53.1520000  69.1280000 163.9760000
  40.6740000  31.2920000 161.6720000  40.6850000  32.2260000 161.8810000
  41.5730000  31.0000000 161.8270000  83.9740000  51.7680000 157.8900000
  83.2230000  51.4530000 157.3880000  83.5900000  52.3080000 158.5820000
  39.8900000  68.6300000 152.3080000  39.6290000  69.5360000 152.4730000
  40.8470000  68.6460000 152.3440000  71.7030000  85.0880000 127.2150000
  72.6560000  85.0190000 127.2690000  71.3870000  84.2020000 127.3930000
  72.8450000  58.6640000 123.5530000  73.7970000  58.5770000 123.5000000
  72.6560000  58.6640000 124.4910000  88.6050000  86.7920000 147.0710000
  87.8150000  86.6870000 147.6010000  88.9610000  85.9070000 146.9910000
  67.4720000  82.6160000 134.4340000  67.6680000  83.5400000 134.5890000
  68.3300000  82.2050000 134.3190000  85.5990000  43.5610000 163.4160000
  86.2590000  43.9340000 164.0000000  84.9880000  43.1120000 164.0000000
  41.3950000  52.3940000 139.6000000  41.0030000  51.5940000 139.2500000
  41.4250000  52.2520000 140.5470000  41.1150000  69.7920000 133.1760000
  40.8450000  70.7050000 133.0770000  42.0710000  69.8250000 133.2030000
  86.7130000  33.4810000 131.1570000  85.8260000  33.5680000 130.8090000
  86.9000000  34.3330000 131.5530000  74.4690000  85.1590000 139.1250000
  74.8280000  86.0460000 139.1400000  75.1920000  84.6120000 138.8170000
  47.7760000  33.8160000 146.6020000  47.8320000  34.4120000 147.3480000
  46.8410000  33.7730000 146.3980000  80.0730000  74.7670000 163.9970000
  80.6680000  75.5160000 163.9880000  80.6500000  74.0020000 164.0000000
  52.5440000  72.2860000 158.5130000  51.7970000  72.3640000 159.1050000
  53.2480000  71.9370000 159.0600000  58.0840000  72.4260000 160.8390000
  57.9080000  71.5040000 160.6540000  58.6950000  72.4110000 161.5760000
  45.6930000  60.7800000 139.5490000  44.9550000  61.3410000 139.3130000
  45.2980000  59.9290000 139.7370000  71.8920000  54.5640000 138.6910000
  71.3220000  53.7950000 138.7170000  71.6320000  55.0820000 139.4530000
  75.0860000  69.4230000 153.0010000  74.8050000  69.5260000 152.0920000
  74.6680000  68.6110000 153.2910000  51.1350000  44.9470000 163.9980000
  50.3810000  45.5370000 164.0000000  50.7530000  44.0690000 163.9970000
  72.6100000  37.9050000 154.1810000  72.3470000  36.9880000 154.1000000
  71.8800000  38.3980000 153.8060000  45.9690000  32.9470000 123.9970000
  45.1530000  33.0030000 123.5000000  45.7510000  33.3090000 124.8570000
  79.2620000  32.7970000 162.8290000  79.0510000  32.0740000 162.2380000
  79.3390000  33.5600000 162.2570000  49.3610000  45.6260000 161.6080000
  48.6520000  45.3730000 161.0170000  49.2970000  46.5800000 161.6640000
  45.8810000  73.4010000 128.2180000  46.2840000  73.0050000 128.9910000
  46.6150000  73.5800000 127.6300000  59.5770000  79.3980000 130.5610000
  59.9750000  79.2410000 131.4170000  60.3190000  79.5520000 129.9760000
  31.0390000  74.5680000 134.6060000  31.0010000  74.1370000 135.4600000
  31.0000000  75.5030000 134.8070000  44.5520000  34.4330000 141.4780000
  43.8860000  35.1200000 141.4570000  45.1620000  34.6700000 140.7790000
  43.7990000  63.8060000 131.1340000  43.5300000  63.7260000 132.0490000
  44.5600000  64.3860000 131.1570000  38.7400000  52.4740000 144.2490000
  38.0700000  51.9680000 143.7910000  39.4590000  52.5440000 143.6210000
  56.5680000  51.8480000 130.0530000  57.0360000  52.5950000 129.6800000
  56.0810000  52.2150000 130.7920000  64.6020000  83.8530000 152.7910000
  65.5420000  83.9950000 152.6860000  64.2370000  84.7310000 152.9010000
  57.4650000  35.2440000 136.9210000  56.6650000  34.7190000 136.9270000
  57.1780000  36.1220000 137.1740000  40.9360000  43.2260000 149.8950000
  40.5050000  42.4160000 149.6240000  40.2290000  43.7700000 150.2440000
  49.2830000  79.0050000 128.7790000  49.0720000  78.0750000 128.8620000
  48.4320000  79.4390000 128.7130000  85.1830000  70.7250000 142.7890000
  85.7530000  71.4940000 142.7660000  84.7260000  70.7410000 141.9480000
  56.4890000  79.4180000 157.7020000  55.7070000  78.8740000 157.6160000
  57.0380000  78.9510000 158.3330000  55.4810000  63.9440000 124.1970000
  55.9470000  63.1580000 124.4810000  56.0420000  64.6680000 124.4750000
  36.1620000  34.1430000 130.0220000  35.7940000  33.7370000 129.2380000
  36.6480000  34.9000000 129.6940000  42.8630000  55.8870000 137.0630000
  42.9300000  55.0260000 136.6510000  43.6670000  55.9720000 137.5750000
  46.6810000  73.6020000 151.2230000  46.0470000  74.3050000 151.0870000
  47.5300000  74.0040000 151.0350000  55.5900000  72.6000000 140.4110000
  55.4490000  71.7500000 139.9940000  54.7420000  72.8210000 140.7980000
  43.4200000  74.7590000 158.4930000  42.9340000  74.1780000 159.0780000
  42.9760000  74.6760000 157.6490000  39.7580000  87.4990000 145.5220000
  38.9690000  87.0930000 145.1650000  40.2980000  86.7630000 145.8120000
  67.2480000  56.7790000 128.5550000  66.2940000  56.7150000 128.5150000
  67.5500000  55.8710000 128.5580000  84.1070000  86.4630000 152.6670000
  83.8860000  85.5330000 152.6500000  83.6500000  86.8040000 153.4360000
  43.2710000  78.8250000 124.9130000  44.1540000  78.4690000 124.8230000
  42.6960000  78.1210000 124.6120000  49.0930000  40.6180000 158.9520000
  49.6220000  40.5720000 158.1560000  49.4780000  39.9620000 159.5340000
  53.5690000  81.4880000 150.9190000  54.2040000  82.1260000 151.2450000
  53.5870000  80.7820000 151.5660000  39.0530000  42.1660000 124.2990000
  38.4920000  41.5940000 124.8220000  38.5500000  42.3300000 123.5000000
  36.3620000  63.7990000 151.6780000  36.2880000  64.7460000 151.5580000
  35.6320000  63.5720000 152.2550000  49.1960000  42.3160000 161.3200000
  49.5820000  43.0220000 161.8390000  48.6150000  42.7620000 160.7030000
  65.7370000  53.8010000 132.1120000  65.8160000  52.9020000 132.4310000
  64.8700000  53.8370000 131.7050000  76.4450000  83.1700000 156.6650000
  77.2970000  83.5670000 156.4850000  75.8430000  83.9120000 156.7240000
  45.8990000  75.5600000 137.3380000  45.0850000  75.8200000 136.9070000
  45.7550000  74.6500000 137.5950000  50.3870000  85.5760000 134.2610000
  50.8640000  86.3740000 134.0350000  49.8200000  85.8330000 134.9890000
  71.1960000  41.4990000 151.4220000  71.3270000  40.6260000 151.7930000
  72.0800000  41.8490000 151.3150000  64.4660000  75.8730000 125.8900000
  64.3960000  76.1630000 126.8000000  63.9400000  75.0740000 125.8520000
  60.7460000  69.5440000 141.6540000  59.8690000  69.8790000 141.4680000
  61.0930000  69.2940000 140.7970000  44.2670000  36.6890000 143.4100000
  43.4280000  36.2810000 143.6240000  44.0320000  37.4660000 142.9020000
  73.3220000  80.5170000 123.5000000  72.4740000  80.0750000 123.5020000
  73.8860000  79.9580000 124.0360000  33.4320000  80.5410000 149.5430000
  32.5450000  80.8970000 149.4870000  33.3050000  79.6060000 149.7080000
  59.7670000  53.6560000 123.7510000  59.7960000  54.5890000 123.5430000
  60.6300000  53.3270000 123.5000000  82.4900000  35.5810000 158.5240000
  82.8910000  34.7200000 158.4060000  81.5690000  35.4500000 158.2960000
  41.3810000  80.3960000 140.1490000  41.3520000  79.5030000 140.4930000
  42.1650000  80.4160000 139.6000000  88.1080000  85.9120000 163.5580000
  89.0000000  86.2550000 163.5040000  88.2030000  85.0680000 164.0000000
  35.2150000  62.6550000 139.3040000  35.7760000  62.0790000 138.7850000
  34.3240000  62.3620000 139.1100000  63.8490000  79.2120000 125.3400000
  64.1650000  78.3490000 125.6090000  64.4350000  79.4710000 124.6290000
  84.5410000  63.5590000 139.0960000  83.9790000  63.4690000 138.3260000
  84.5180000  62.6980000 139.5120000  70.2670000  68.5220000 150.5480000
  70.4790000  68.2720000 149.6480000  70.8640000  69.2440000 150.7440000
  87.8990000  59.4540000 154.6600000  88.8110000  59.7220000 154.5440000
  87.5620000  59.3570000 153.7690000  61.4860000  85.4190000 153.1830000
  62.0000000  85.7500000 152.4460000  60.5970000  85.3350000 152.8380000
  88.4930000  38.4470000 145.2620000  89.0000000  39.1400000 145.6850000
  89.0000000  38.2220000 144.4810000  58.9470000  78.3900000 143.6420000
  59.4720000  77.8410000 144.2240000  58.3730000  78.8820000 144.2310000
  63.1480000  31.0420000 131.3820000  64.0960000  31.1620000 131.3170000
  62.8490000  31.0000000 130.4730000  83.0700000  48.3340000 134.2120000
  82.3190000  47.9210000 134.6370000  82.7360000  48.6230000 133.3620000
  63.5740000  44.2980000 127.9670000  63.5090000  45.1090000 127.4640000
  63.1920000  44.5130000 128.8190000  50.6060000  47.1810000 126.2680000
  49.9210000  46.6630000 125.8460000  51.3880000  47.0210000 125.7390000
  58.0860000  84.7820000 131.8780000  58.2600000  84.7250000 130.9380000
  57.7100000  85.6540000 132.0000000  67.1430000  37.0710000 150.2560000
  66.1880000  37.1050000 150.3040000  67.4400000  37.5210000 151.0470000
  80.8190000  56.1920000 126.5770000  80.7130000  56.1110000 125.6300000
  81.7220000  55.9200000 126.7420000  53.1420000  67.7590000 148.4020000
  53.7120000  68.4630000 148.0930000  53.7410000  67.0430000 148.6180000
  64.6170000  31.7890000 149.2740000  65.1300000  31.0000000 149.0990000
  64.8960000  32.4100000 148.6010000  73.6040000  88.0520000 156.8350000
  72.7440000  87.6690000 156.6690000  73.4310000  88.9850000 156.9670000
  43.0070000  49.7090000 159.2150000  42.8500000  50.6520000 159.2490000
  43.9200000  49.6070000 159.4870000  86.1450000  83.3360000 130.0780000
  85.6500000  84.0340000 130.5080000  86.3310000  82.7090000 130.7780000
  69.0120000  74.6840000 136.5770000  68.3240000  74.4030000 137.1800000
  69.2820000  75.5430000 136.9030000  31.7000000  62.6690000 134.8840000
  31.5140000  61.7630000 135.1290000  31.4200000  63.1840000 135.6410000
  46.9020000  81.1030000 129.8990000  46.0650000  80.6470000 129.8110000
  46.6640000  82.0250000 129.9980000  79.7840000  76.9680000 123.5000000
  80.5510000  77.5190000 123.6570000  79.5370000  76.6470000 124.3680000
  65.2040000  85.6140000 164.0000000  64.8990000  85.7710000 163.1060000
  66.1460000  85.7800000 163.9650000  48.8700000  58.2060000 146.9480000
  48.8820000  57.2520000 147.0290000  49.7350000  58.4280000 146.6030000
  70.3360000  78.2480000 134.5700000  69.8230000  78.1680000 135.3740000
  71.1000000  77.6900000 134.7160000  50.7350000  77.0620000 154.7750000
  51.5880000  76.6960000 155.0040000  50.1860000  76.2980000 154.5940000
  31.5560000  39.1230000 158.7480000  31.0120000  39.8760000 158.9760000
  31.0000000  38.5870000 158.1820000  56.5480000  69.8110000 158.1030000
  57.3200000  70.3720000 158.1760000  55.8140000  70.4210000 158.0280000
  76.2820000  68.7340000 123.5000000  75.4190000  69.1100000 123.6700000
  76.8910000  69.4620000 123.6300000  55.5130000  31.9510000 158.8520000
  55.3940000  31.0030000 158.7990000  56.0060000  32.0860000 159.6610000
  82.1470000  85.7080000 137.2960000  81.6790000  86.5400000 137.2270000
  82.9510000  85.9230000 137.7680000  56.8700000  85.6920000 128.8340000
  56.7700000  86.2350000 129.6150000  56.0280000  85.2460000 128.7420000
  37.2280000  54.0220000 145.5010000  36.7620000  54.8580000 145.5310000
  36.5860000  53.3780000 145.7990000  63.6710000  37.5520000 141.1600000
  64.1470000  38.1190000 140.5530000  63.9550000  37.8380000 142.0280000
  54.0560000  33.5850000 141.9210000  53.2800000  33.3360000 141.4190000
  54.7850000  33.1760000 141.4540000  84.5740000  55.0790000 154.1750000
  84.6130000  55.4590000 153.2970000  83.7970000  55.4730000 154.5720000
  77.6130000  32.8870000 134.3350000  78.3440000  33.4800000 134.1600000
  77.6390000  32.7460000 135.2810000  50.7850000  64.2910000 134.7760000
  51.1130000  63.7280000 135.4770000  49.9130000  63.9470000 134.5800000
  82.4350000  42.8210000 157.3000000  81.7810000  42.1320000 157.1830000
  83.1060000  42.4220000 157.8540000  45.1240000  80.0640000 132.2480000
  44.1670000  80.0470000 132.2530000  45.3470000  80.9940000 132.1960000
  72.4930000  74.7440000 127.7790000  72.2220000  75.0090000 128.6580000
  72.4040000  73.7910000 127.7770000  79.1640000  40.7540000 164.0000000
  78.9530000  39.8240000 163.9190000  78.3160000  41.1980000 163.9480000
  46.6890000  76.9610000 148.6950000  47.5660000  76.5960000 148.8130000
  46.1140000  76.1960000 148.6590000  88.4390000  41.5490000 138.8520000
  87.6730000  41.2080000 138.3900000  89.0000000  40.7840000 138.9810000
  46.7690000  52.0240000 146.7490000  46.2050000  52.7120000 146.3970000
  47.5510000  52.0500000 146.1970000  57.4290000  47.4690000 142.1760000
  58.0260000  48.2090000 142.2810000  57.2940000  47.4010000 141.2310000
  59.7380000  42.3460000 163.7780000  60.6430000  42.1290000 163.9990000
  59.3260000  41.5020000 163.5950000  40.9600000  54.7710000 152.4380000
  40.3210000  55.3450000 152.8600000  41.2740000  55.2710000 151.6850000
  82.4160000  40.4180000 123.5780000  83.3120000  40.7450000 123.5000000
  82.5100000  39.4650000 123.6050000  39.5780000  74.2710000 140.4680000
  38.9360000  73.9550000 141.1030000  40.3260000  73.6810000 140.5680000
  59.1470000  76.8080000 146.9010000  59.7770000  76.3860000 146.3170000
  59.4130000  76.5340000 147.7790000  80.0570000  89.0000000 142.2850000
  80.4540000  88.1420000 142.4320000  79.6910000  88.9470000 141.4020000
  31.5860000  37.5720000 163.9930000  31.0000000  38.3280000 164.0000000
  31.0000000  36.8140000 163.9830000  44.6710000  73.3260000 154.9630000
  45.4020000  73.4560000 154.3600000  44.5610000  74.1750000 155.3930000
  40.2850000  80.3450000 152.2200000  39.7950000  79.6490000 152.6570000
  39.8300000  80.4730000 151.3870000  82.2790000  67.5260000 154.3410000
  82.2250000  68.3180000 153.8070000  82.1220000  67.8280000 155.2360000
  36.6620000  88.6680000 138.4510000  37.5930000  88.8860000 138.4520000
  36.6400000  87.7110000 138.4130000  38.1250000  33.9340000 142.2770000
  38.7720000  34.6230000 142.1250000  37.4950000  34.3260000 142.8820000
  78.9850000  36.0660000 156.4370000  78.0470000  35.9860000 156.6130000
  79.2520000  36.8520000 156.9140000  58.2950000  79.2550000 146.8810000
  58.8390000  79.2010000 147.6670000  57.8590000  80.1050000 146.9480000
  85.9870000  38.8980000 127.1090000  86.6360000  38.3630000 127.5650000
  86.5020000  39.4540000 126.5240000  36.4430000  70.3210000 125.8790000
  35.5170000  70.0940000 125.9630000  36.4590000  71.2780000 125.9030000
  39.4390000  62.6500000 144.0430000  39.1470000  63.5560000 143.9460000
  38.6310000  62.1370000 144.0560000  33.4630000  38.7000000 161.7580000
  34.3770000  38.9620000 161.8600000  33.4760000  37.7460000 161.8430000
  48.7510000  53.2020000 131.2790000  48.3420000  52.4340000 130.8790000
  49.6750000  53.1350000 131.0370000  59.9220000  35.2520000 149.6510000
  59.8280000  36.1670000 149.3860000  60.6900000  35.2460000 150.2230000
  33.2110000  68.7350000 131.9700000  33.7660000  69.1160000 132.6500000
  33.7640000  68.0760000 131.5500000  47.7420000  34.0170000 159.0970000
  47.0280000  33.7590000 158.5140000  47.8330000  33.2820000 159.7040000
  57.7580000  37.2540000 157.3970000  57.6280000  36.3710000 157.7400000
  58.6590000  37.2560000 157.0720000  62.0240000  61.8420000 123.5610000
  61.8110000  62.7750000 123.5680000  62.9810000  61.8150000 123.5330000
  53.1020000  69.3730000 139.3650000  53.7090000  69.9650000 139.8090000
  52.5580000  69.0150000 140.0680000  39.9480000  84.8820000 157.8340000
  39.5940000  85.3040000 158.6180000  39.1750000  84.6180000 157.3340000
  75.5060000  76.4610000 145.9090000  76.1820000  76.5400000 146.5820000
  75.1100000  77.3320000 145.8630000  77.7030000  78.6740000 159.6440000
  77.9360000  78.0070000 160.2890000  78.3600000  79.3600000 159.7610000
  86.2760000  40.0580000 140.1140000  86.4720000  40.2100000 141.0380000
  86.7820000  39.2770000 139.8870000  76.7070000  66.7110000 145.2400000
  77.6300000  66.8150000 145.4690000  76.2720000  67.4590000 145.6510000
  48.2150000  68.9550000 125.5950000  47.3040000  69.2340000 125.5160000
  48.7100000  69.7710000 125.6780000  80.1670000  31.0000000 123.5180000
  81.1240000  31.0010000 123.5250000  79.9270000  31.9270000 123.5000000
  81.1020000  65.4470000 153.2880000  80.7170000  64.8750000 153.9520000
  81.4620000  64.8480000 152.6340000  66.0480000  73.0290000 156.0930000
  66.3310000  73.7090000 156.7040000  65.5440000  73.4990000 155.4280000
  60.0000000  77.3660000 159.0140000  59.7470000  76.4780000 158.7630000
  59.1710000  77.8180000 159.1720000  68.9820000  62.7900000 152.4550000
  69.4670000  63.3410000 151.8400000  68.7900000  61.9920000 151.9620000
  76.7100000  87.2120000 132.3310000  76.5440000  88.1340000 132.1370000
  75.8390000  86.8270000 132.4290000  76.5400000  76.2060000 158.9440000
  75.7420000  76.0420000 158.4420000  77.2510000  75.9640000 158.3510000
  39.7700000  43.8820000 159.0680000  38.9850000  43.4070000 159.3420000
  40.4500000  43.2100000 159.0150000  44.8370000  88.4140000 124.6380000
  44.9870000  88.9850000 125.3920000  44.5060000  89.0000000 123.9570000
  41.6290000  31.5760000 140.0240000  41.1380000  31.0000000 139.4390000
  41.9010000  31.0090000 140.7470000  55.1530000  79.2450000 126.2740000
  55.3310000  79.9710000 125.6770000  54.7870000  78.5590000 125.7150000
  31.0000000  66.8910000 135.5210000  31.5550000  66.3180000 136.0490000
  31.5640000  67.6310000 135.2970000  53.3030000  64.4720000 162.0450000
  53.1820000  64.8600000 162.9110000  52.5320000  64.7480000 161.5480000
  44.0380000  31.0000000 137.3230000  43.3430000  31.0620000 137.9780000
  43.6050000  31.2060000 136.4940000  51.8840000  83.5970000 126.4740000
  51.3500000  84.3660000 126.2760000  52.7280000  83.9550000 126.7480000
  64.8130000  40.6050000 129.2620000  65.5180000  41.2120000 129.0360000
  64.0270000  41.1510000 129.2910000  48.0250000  48.4730000 156.2090000
  47.9760000  47.5180000 156.1600000  48.4080000  48.7360000 155.3720000
  47.9710000  47.7400000 136.4450000  48.2900000  47.3040000 137.2340000
  48.6430000  48.3920000 136.2420000  36.8500000  64.6100000 154.8600000
  36.8240000  65.2690000 155.5540000  36.4530000  65.0410000 154.1030000
  75.4390000  59.4140000 163.9740000  75.6710000  60.3430000 163.9810000
  75.3570000  59.1940000 163.0460000  62.6970000  45.0980000 148.1540000
  62.6050000  44.3810000 148.7810000  62.3330000  44.7530000 147.3390000
  31.9260000  72.5580000 138.0290000  31.9600000  71.6810000 138.4100000
  31.0000000  72.8000000 138.0670000  58.3240000  43.0630000 157.6190000
  57.8010000  43.8180000 157.3500000  58.1650000  42.9840000 158.5600000
  58.3890000  35.6340000 154.3410000  57.6850000  35.1560000 153.9040000
  58.1650000  35.5940000 155.2710000  53.4230000  56.1470000 132.4350000
  53.3720000  56.5140000 131.5530000  53.8240000  55.2860000 132.3140000
  40.3730000  50.3630000 161.5790000  40.5570000  51.1660000 161.0920000
  41.2320000  49.9600000 161.7100000  89.0000000  79.0390000 129.9170000
  88.9280000  78.2840000 130.5000000  88.6170000  78.7420000 129.0910000
  38.3920000  78.1840000 150.6300000  38.8290000  77.4000000 150.2980000
  38.2360000  78.7200000 149.8520000  83.7250000  53.7860000 130.3230000
  83.3760000  52.8950000 130.3240000  82.9490000  54.3470000 130.2970000
  81.3530000  64.1510000 132.7170000  80.9840000  64.0520000 131.8390000
  80.7200000  64.6970000 133.1830000  75.2860000  47.5770000 154.6680000
  75.0310000  48.4860000 154.5120000  75.5700000  47.5620000 155.5830000
  87.3030000  58.8180000 137.0830000  87.0360000  59.7020000 136.8310000
  88.0070000  58.5970000 136.4740000  31.4840000  70.6200000 129.2110000
  31.0430000  71.2700000 129.7580000  31.0390000  70.6770000 128.3650000
  88.5720000  31.2710000 146.5590000  89.0000000  31.0010000 145.7470000
  89.0000000  32.0950000 146.7940000  59.0830000  64.7210000 154.8470000
  59.0240000  64.9550000 155.7730000  58.2560000  65.0220000 154.4700000
  35.7140000  33.4790000 140.1060000  36.6230000  33.2180000 139.9580000
  35.7310000  33.9450000 140.9420000  53.0210000  67.1160000 138.2920000
  52.1820000  67.4460000 137.9700000  52.8590000  66.1900000 138.4770000
  45.3930000  86.8090000 136.0110000  44.5940000  87.2530000 135.7250000
  45.6830000  86.3190000 135.2410000  55.6590000  68.7340000 141.3540000
  56.4690000  68.3160000 141.6470000  54.9780000  68.0820000 141.5230000
  41.8690000  55.9010000 163.9890000  41.9360000  54.9460000 163.9860000
  42.7760000  56.2050000 164.0000000  64.5120000  61.3470000 161.6650000
  63.5790000  61.3940000 161.4620000  64.7800000  62.2590000 161.7810000
  85.0880000  47.3330000 154.0240000  85.4890000  46.5420000 153.6650000
  85.6050000  47.5300000 154.8060000  52.1400000  72.8210000 128.5510000
  51.7980000  73.4600000 129.1760000  51.3670000  72.5120000 128.0770000
  73.5710000  68.0580000 135.3780000  73.2740000  68.3150000 134.5050000
  73.0210000  67.3090000 135.6080000  74.2410000  44.3270000 149.0160000
  75.0350000  44.0130000 149.4490000  74.5370000  44.6140000 148.1510000
  39.6240000  83.7130000 146.9310000  39.5060000  84.3630000 146.2380000
  38.8280000  83.7770000 147.4590000  80.5480000  45.2990000 136.1670000
  81.4530000  45.3760000 136.4670000  80.0240000  45.6370000 136.8930000
  58.3520000  42.6680000 154.5030000  58.9450000  43.2970000 154.9140000
  58.9320000  42.0300000 154.0850000  45.8110000  71.6980000 136.1330000
  45.4120000  71.1740000 136.8280000  46.3480000  72.3410000 136.5950000
  45.7340000  56.8470000 138.6770000  45.2150000  57.6510000 138.7050000
  46.6380000  57.1490000 138.5800000  52.0750000  54.0000000 153.9690000
  52.8050000  53.9670000 154.5870000  52.4840000  53.8970000 153.1090000
  50.0060000  48.9930000 160.5320000  50.7610000  48.4670000 160.2660000
  50.1610000  49.1850000 161.4570000  38.3010000  66.3270000 141.2790000
  38.6460000  67.1210000 140.8720000  39.0250000  65.9960000 141.8110000
  40.0490000  77.1930000 131.5190000  39.1510000  77.4870000 131.3690000
  40.3050000  77.6130000 132.3410000  39.0440000  68.9330000 162.0470000
  39.6830000  68.2860000 161.7500000  38.2280000  68.6820000 161.6120000
  79.4550000  63.8930000 145.6980000  79.1980000  64.8090000 145.5910000
  79.1740000  63.4690000 144.8860000  51.2330000  72.7340000 131.6220000
  51.9830000  72.5340000 132.1830000  50.6330000  73.2200000 132.1890000
  87.7850000  62.7060000 151.2910000  87.2120000  63.3000000 150.8070000
  87.1940000  62.0430000 151.6510000  67.5370000  89.0000000 151.9180000
  67.1510000  88.9760000 151.0430000  67.7130000  88.0820000 152.1280000
  66.7910000  53.7450000 129.6340000  67.2620000  53.1580000 130.2240000
  65.9840000  53.2760000 129.4210000  67.6640000  46.0870000 149.9400000
  67.2630000  46.8020000 149.4470000  66.9360000  45.6880000 150.4180000
  48.0690000  36.0910000 160.6600000  47.7430000  36.7070000 161.3160000
  48.8750000  36.4920000 160.3340000  78.4000000  44.2990000 144.3590000
  79.1450000  43.7150000 144.2210000  78.4450000  44.5300000 145.2870000
  83.0670000  63.5310000 157.6510000  83.1910000  62.7390000 157.1290000
  82.4120000  64.0360000 157.1690000  64.8670000  31.0000000 126.5710000
  65.4530000  31.0240000 125.8150000  63.9880000  31.0460000 126.1950000
  63.7540000  48.8660000 132.6330000  63.6110000  48.9240000 133.5770000
  62.9520000  48.4700000 132.2920000  45.1740000  79.0230000 159.0310000
  44.6590000  78.7550000 158.2700000  45.3720000  79.9460000 158.8740000
  81.8020000  76.0290000 125.2270000  82.6720000  76.4270000 125.2030000
  81.9700000  75.0860000 125.2250000  85.8960000  78.8150000 143.6300000
  85.7650000  79.7410000 143.8330000  86.6960000  78.7960000 143.1040000
  76.6430000  40.1820000 137.7470000  76.4240000  41.1140000 137.7490000
  77.6000000  40.1600000 137.7480000  50.8140000  80.9770000 150.4370000
  51.3860000  81.2220000 149.7100000  50.6430000  81.8010000 150.8950000
  78.8720000  53.4580000 153.3060000  78.1120000  53.0080000 153.6740000
  79.5150000  53.4610000 154.0150000  78.9780000  86.2290000 140.5550000
  78.6160000  85.3440000 140.5700000  78.2110000  86.8020000 140.5360000
  38.3540000  43.0160000 156.3040000  38.0850000  42.6360000 157.1400000
  38.9520000  42.3700000 155.9290000  86.0180000  79.7970000 163.8480000
  86.1620000  78.8520000 163.8860000  86.8820000  80.1790000 164.0000000
  33.2830000  44.8810000 151.4340000  33.0120000  45.4050000 150.6810000
  32.6920000  45.1500000 152.1380000  83.3520000  79.4900000 159.4960000
  82.9410000  79.3300000 158.6460000  82.7550000  79.0920000 160.1300000
  60.8060000  65.8350000 163.8740000  60.5970000  64.9200000 163.6860000
  61.1840000  66.1670000 163.0600000  86.1240000  40.0250000 124.1190000
  85.4480000  39.4670000 123.7340000  86.2190000  40.7490000 123.5000000
  87.5860000  84.7830000 139.5160000  87.6490000  84.5320000 140.4370000
  88.2370000  84.2370000 139.0730000  71.2770000  58.3210000 150.9950000
  71.0500000  57.4670000 151.3620000  72.2280000  58.3800000 151.0930000
  82.0720000  36.6770000 152.3420000  81.2010000  36.2820000 152.3130000
  81.9780000  37.4210000 152.9370000  61.2070000  76.2220000 126.1030000
  61.4440000  75.4400000 125.6050000  61.9610000  76.8050000 126.0060000
  68.1500000  87.1360000 155.5980000  68.7300000  86.4360000 155.2980000
  67.6080000  87.3420000 154.8370000  33.6380000  73.9010000 129.7920000
  34.5670000  73.9310000 130.0190000  33.3890000  74.8190000 129.6820000
  60.7160000  45.6920000 127.8930000  60.7620000  45.0640000 128.6140000
  60.9350000  45.1790000 127.1150000  64.7720000  78.9420000 132.2210000
  64.6150000  78.6440000 133.1160000  64.4840000  78.2130000 131.6710000
  39.1340000  36.7310000 154.9970000  39.4140000  37.6230000 155.2030000
  38.8370000  36.7770000 154.0880000  85.1510000  84.2260000 139.4110000
  84.2900000  84.6420000 139.4460000  85.2580000  83.8210000 140.2720000
  36.7080000  83.5540000 135.1200000  35.8550000  83.1200000 135.1240000
  37.1090000  83.2860000 134.2920000  38.2590000  37.6380000 134.9310000
  37.6120000  38.1840000 134.4840000  38.9900000  37.5800000 134.3150000
  38.4400000  57.0830000 144.3930000  39.0660000  57.8010000 144.4750000
  38.1110000  56.9480000 145.2820000  59.4360000  82.8400000 129.7920000
  60.3600000  82.6070000 129.7070000  59.1190000  82.3020000 130.5190000
  31.0000000  53.6800000 133.9340000  31.0790000  53.7440000 132.9830000
  31.1300000  52.7510000 134.1240000  34.7840000  53.1330000 154.0640000
  35.4160000  52.4930000 153.7400000  33.9590000  52.6500000 154.1190000
  75.8500000  47.0870000 149.6080000  76.4060000  46.3900000 149.2590000
  74.9740000  46.7020000 149.6390000  45.1010000  57.4660000 132.8490000
  45.8670000  57.8380000 132.4120000  44.3560000  57.9230000 132.4580000
  34.2370000  88.1020000 139.8830000  34.9740000  87.6360000 140.2760000
  34.5520000  89.0000000 139.7730000  51.5450000  81.0510000 139.9190000
  50.7680000  80.7980000 140.4170000  51.2000000  81.4010000 139.0970000
  67.2610000  74.7700000 131.5160000  66.7810000  75.3890000 130.9670000
  66.7190000  74.6710000 132.2990000  63.5360000  57.5860000 126.3320000
  64.3170000  58.0850000 126.0940000  63.8730000  56.8230000 126.8030000
  54.5840000  48.3550000 147.3290000  54.1380000  47.5410000 147.0990000
  54.9730000  48.1810000 148.1870000  83.0810000  51.8470000 142.5000000
  83.9310000  52.2570000 142.3460000  82.5540000  52.5330000 142.9100000
  86.6580000  74.4420000 142.4720000  86.1640000  73.9850000 141.7920000
  86.3270000  74.0800000 143.2940000  82.4300000  74.1070000 135.0490000
  82.2100000  73.9160000 135.9610000  83.1910000  74.6870000 135.1020000
  51.2800000  52.4740000 145.7310000  51.8880000  53.1540000 146.0190000
  50.5060000  52.9550000 145.4350000  70.3620000  48.1300000 133.6550000
  70.7360000  48.6610000 132.9520000  69.5100000  47.8520000 133.3170000
  39.1130000  69.1040000 143.0840000  39.0830000  68.1500000 143.1510000
  40.0470000  69.3160000 143.0800000  59.5500000  64.6210000 140.4780000
  59.2990000  63.7570000 140.1520000  60.4780000  64.5350000 140.6960000
  76.1970000  73.7450000 145.6880000  76.3610000  74.3180000 144.9400000
  76.9470000  73.8860000 146.2670000  35.4810000  70.2870000 135.1340000
  35.9190000  69.4360000 135.1120000  34.5470000  70.0750000 135.1540000
  31.4410000  83.3490000 125.1140000  31.0000000  83.7380000 125.8690000
  31.0000000  83.7330000 124.3550000  65.1950000  85.7680000 128.4870000
  65.7260000  86.5490000 128.6380000  65.8310000  85.0560000 128.4130000
  85.3470000  85.5440000 136.2870000  85.3480000  85.4480000 137.2390000
  86.1410000  86.0440000 136.0960000  43.9300000  33.1970000 154.4070000
  44.4260000  33.3690000 153.6070000  43.2580000  33.8790000 154.4230000
  89.0000000  67.6650000 139.9430000  88.0910000  67.9290000 140.0830000
  88.9810000  66.7090000 139.9830000  85.8820000  49.4410000 126.4010000
  85.6130000  50.2740000 126.7860000  85.0920000  49.1050000 125.9790000
  67.8590000  80.6030000 150.7060000  67.4330000  80.0380000 151.3490000
  68.6820000  80.8630000 151.1220000  80.8730000  48.3630000 157.3640000
  81.6050000  48.9790000 157.3910000  81.1890000  47.5940000 157.8390000
  88.4740000  88.8080000 127.6760000  87.5720000  88.9680000 127.4010000
  89.0000000  89.0000000 126.8990000  35.9540000  86.9380000 155.9580000
  36.7600000  86.4240000 155.9040000  36.0330000  87.5830000 155.2550000
  84.2370000  85.5100000 157.8010000  84.4170000  84.6090000 157.5340000
  84.4430000  86.0350000 157.0270000  76.7790000  66.4020000 148.1090000
  76.2810000  65.8140000 147.5410000  76.1330000  67.0350000 148.4230000
  54.5050000  66.5950000 124.0560000  55.2540000  66.8680000 123.5260000
  53.7440000  66.7650000 123.5000000  47.8350000  65.8270000 135.6050000
  47.8560000  64.8720000 135.6590000  47.7010000  66.1150000 136.5090000
  48.5010000  61.2000000 154.3270000  48.3750000  62.0940000 154.6470000
  47.6140000  60.8770000 154.1650000  76.4380000  31.0460000 133.1180000
  76.5050000  31.0000000 132.1640000  75.4970000  31.0200000 133.2940000
  88.9300000  82.8130000 127.8580000  88.0450000  82.8260000 128.2240000
  89.0000000  81.9600000 127.4300000  62.0290000  35.2260000 161.5350000
  62.9310000  35.3960000 161.2660000  61.5180000  35.9180000 161.1150000
  33.3480000  78.8990000 123.5000000  33.6870000  78.0050000 123.5400000
  34.0210000  79.4300000 123.9260000  54.9680000  70.3470000 127.0620000
  55.5900000  70.2250000 126.3450000  55.3630000  69.8860000 127.8020000
  39.6300000  72.1130000 131.2280000  39.4890000  72.9760000 131.6160000
  39.6370000  72.2720000 130.2840000  79.5250000  85.9770000 135.0950000
  79.8840000  85.4920000 135.8370000  79.8390000  85.5030000 134.3240000
  52.0250000  53.7350000 157.2220000  51.6780000  54.6210000 157.1130000
  51.3470000  53.1650000 156.8580000  35.2800000  67.9920000 123.6560000
  34.5390000  68.5910000 123.7450000  34.8790000  67.1350000 123.5100000
  65.0630000  39.8140000 134.2730000  64.2400000  39.4590000 133.9370000
  64.8800000  40.7410000 134.4280000  71.2820000  83.8300000 149.7870000
  70.5600000  83.2960000 149.4570000  70.8690000  84.6470000 150.0680000
  48.9430000  83.4030000 138.1170000  48.0820000  83.0320000 137.9240000
  48.9220000  84.2750000 137.7230000  31.1200000  59.7560000 127.1180000
  31.0000000  59.7690000 126.1690000  31.0000000  58.8380000 127.3630000
  62.0020000  66.8640000 148.6270000  62.9070000  66.5580000 148.6730000
  61.6210000  66.3780000 147.8940000  68.8660000  31.0500000 133.9120000
  68.6810000  31.0000000 134.8490000  69.0780000  31.9710000 133.7580000
  33.9770000  65.2400000 138.3530000  34.0160000  64.8480000 139.2250000
  34.3060000  66.1310000 138.4760000  52.8180000  82.1930000 147.8980000
  53.5770000  82.6880000 148.2070000  53.0720000  81.8860000 147.0270000
  46.3700000  84.9820000 154.9590000  46.4030000  84.4460000 154.1670000
  46.6330000  84.3870000 155.6620000  48.9040000  88.4310000 163.7130000
  49.6740000  89.0000000 163.7220000  48.1820000  89.0000000 163.9790000
  78.0550000  68.2940000 129.3070000  77.9940000  68.3450000 128.3530000
  78.4980000  67.4620000 129.4740000  36.9180000  40.0090000 130.5710000
  37.4700000  39.7550000 129.8310000  36.1960000  40.4980000 130.1750000
  72.9950000  82.3140000 163.3060000  73.6380000  81.7150000 163.6850000
  72.5160000  81.7820000 162.6700000  46.7740000  66.0420000 158.5070000
  46.9780000  65.1070000 158.5280000  47.1020000  66.3400000 157.6580000
  81.0800000  52.9980000 150.7000000  80.4400000  53.2340000 151.3720000
  80.9710000  53.6640000 150.0210000  60.1420000  37.2840000 144.1350000
  59.1910000  37.1800000 144.1300000  60.3220000  37.8840000 143.4110000
  84.8270000  58.7160000 154.3180000  84.3120000  57.9120000 154.3860000
  85.3500000  58.7350000 155.1200000  65.2480000  67.2660000 139.1810000
  64.3070000  67.3380000 139.3380000  65.4860000  66.4100000 139.5400000
  80.7770000  87.4970000 163.9970000  81.2240000  88.3440000 163.9990000
  81.4850000  86.8530000 163.9980000  35.3190000  84.8480000 157.2060000
  35.9210000  84.5120000 157.8690000  34.5850000  84.2340000 157.2150000
  83.2460000  38.1230000 162.6540000  82.9430000  37.7050000 161.8480000
  83.3690000  37.3990000 163.2680000  88.4060000  65.3920000 125.7180000
  87.4490000  65.4090000 125.7430000  88.6580000  64.9040000 126.5020000
  57.3430000  71.5690000 145.0140000  56.9650000  72.2440000 144.4520000
  57.0160000  70.7440000 144.6520000  42.2360000  60.2830000 156.5300000
  41.7140000  61.0020000 156.8870000  41.6620000  59.5190000 156.5880000
  81.9790000  76.5210000 141.3870000  82.0930000  77.2640000 141.9790000
  82.7420000  76.5560000 140.8090000  37.7080000  77.8250000 158.2960000
  36.9420000  78.3970000 158.2530000  37.9230000  77.7800000 159.2280000
  42.0430000  86.3460000 159.0850000  41.7260000  86.5970000 158.2180000
  41.3820000  86.6840000 159.6890000  74.0380000  40.5820000 148.6450000
  74.5300000  41.3050000 148.2580000  73.6600000  40.9490000 149.4450000
  40.1000000  73.9220000 156.3730000  41.0160000  73.9080000 156.0970000
  39.6190000  74.1990000 155.5930000  36.1140000  57.9830000 137.9680000
  35.6630000  58.8240000 138.0420000  36.4430000  57.9660000 137.0690000
  57.2870000  58.9330000 151.6420000  57.7380000  59.3450000 152.3780000
  57.4000000  59.5480000 150.9160000  73.4520000  49.9680000 126.4040000
  74.1500000  49.4240000 126.0400000  73.8880000  50.7850000 126.6490000
  61.1090000  71.7490000 127.6950000  62.0490000  71.8830000 127.8170000
  60.7550000  71.7150000 128.5840000  31.0330000  78.1530000 155.1560000
  31.0000000  77.8460000 154.2500000  31.0060000  77.3530000 155.6820000
  67.7090000  88.7750000 131.4460000  68.6380000  89.0000000 131.4200000
  67.4340000  88.9910000 132.3370000  83.0120000  46.8470000 156.3000000
  83.9400000  46.8250000 156.5320000  83.0050000  46.9270000 155.3460000
  81.3620000  49.1410000 147.0780000  81.0960000  48.2230000 147.0250000
  81.8460000  49.2970000 146.2670000  73.1040000  35.8350000 146.5430000
  72.2880000  35.3710000 146.3540000  72.8400000  36.7480000 146.6570000
  48.2440000  50.7870000 123.5000000  49.2010000  50.7510000 123.5000000
  48.0390000  51.7220000 123.5020000  48.6010000  84.9690000 151.9540000
  49.1410000  84.1790000 151.9500000  47.7640000  84.6900000 151.5800000
  45.9400000  49.1160000 126.3360000  45.9840000  48.4550000 127.0270000
  46.3210000  49.9010000 126.7310000  76.9480000  34.6690000 163.0710000
  76.3190000  34.0110000 162.7740000  77.0770000  34.4750000 164.0000000
  45.3440000  56.8670000 158.0700000  45.9720000  56.6700000 157.3750000
  44.6630000  56.2000000 157.9740000  36.7990000  37.7010000 152.0760000
  36.8760000  36.8610000 151.6240000  35.8580000  37.8790000 152.0920000
  79.1610000  46.9820000 159.2280000  78.2500000  46.6900000 159.1910000
  79.1090000  47.9370000 159.1830000  86.8540000  45.5490000 155.6820000
  87.4900000  44.8850000 155.9460000  86.0200000  45.2350000 156.0320000
  77.0950000  59.5170000 133.3410000  78.0200000  59.5030000 133.5870000
  76.9570000  58.6900000 132.8780000  39.1670000  88.8830000 154.4880000
  38.4050000  88.8220000 155.0630000  39.9150000  88.9300000 155.0840000
  64.4690000  40.7330000 141.6270000  65.2200000  41.0830000 141.1470000
  63.7270000  40.8600000 141.0360000  42.0470000  71.3170000 142.8760000
  41.8820000  72.0490000 142.2820000  42.6170000  70.7290000 142.3810000
  71.9480000  40.5920000 128.9320000  71.0190000  40.7240000 128.7440000
  72.2450000  39.9800000 128.2580000  65.3860000  59.9120000 134.4940000
  64.9100000  59.2270000 134.0260000  65.8930000  60.3590000 133.8150000
  42.5930000  44.0170000 152.6160000  42.4540000  44.0170000 153.5630000
  41.7230000  43.8610000 152.2470000  79.2240000  74.0220000 133.7580000
  79.6230000  74.4600000 134.5100000  79.8470000  73.3340000 133.5220000
  50.1450000  31.2080000 145.7740000  50.6360000  31.0000000 146.5690000
  49.2330000  31.0190000 145.9990000  77.4540000  59.1290000 153.0610000
  76.8860000  58.4980000 152.6190000  78.3420000  58.8100000 152.8940000
  53.4660000  54.3240000 163.9490000  54.1740000  54.9650000 163.8860000
  53.1970000  54.1730000 163.0430000  57.2190000  76.3570000 137.1270000
  58.0590000  75.9760000 136.8730000  57.1890000  76.2570000 138.0790000
  77.5430000  49.6760000 161.4850000  78.2310000  49.8140000 160.8350000
  77.2860000  48.7600000 161.3720000  50.9330000  78.1070000 150.0930000
  50.1270000  78.4420000 149.7010000  51.6160000  78.7020000 149.7830000
  75.7880000  59.4040000 154.9450000  75.5530000  58.5010000 154.7340000
  76.5930000  59.3290000 155.4580000  53.0790000  69.9710000 153.3070000
  52.2210000  70.3860000 153.2270000  52.9680000  69.3210000 154.0010000
  66.7010000  52.3190000 135.5450000  67.6500000  52.4340000 135.4980000
  66.3550000  52.9060000 134.8720000  68.7420000  42.8610000 127.5580000
  67.8980000  42.9970000 127.9890000  68.7910000  43.5550000 126.9010000
  57.3800000  82.8750000 158.6150000  57.4300000  83.3690000 157.7970000
  57.0780000  82.0050000 158.3520000  83.1000000  45.0960000 130.0420000
  83.3470000  44.4600000 130.7130000  83.5800000  45.8910000 130.2770000
  60.0670000  52.1370000 161.5330000  59.9370000  53.0850000 161.5270000
  60.9790000  52.0220000 161.8010000  87.7520000  62.0030000 161.1350000
  87.5090000  61.2360000 160.6160000  88.5030000  61.7130000 161.6540000
  64.9380000  47.4390000 158.4740000  64.2120000  47.7800000 157.9520000
  64.7880000  47.7910000 159.3520000  85.1470000  79.0250000 154.1780000
  85.6710000  78.5490000 153.5350000  84.2570000  78.6930000 154.0560000
  69.7270000  61.1580000 135.9360000  69.3390000  61.7640000 135.3060000
  70.0590000  61.7200000 136.6370000  63.7580000  41.8850000 126.1500000
  63.0300000  42.5040000 126.1050000  64.1930000  42.0870000 126.9790000
  67.3300000  61.5660000 157.0140000  68.2530000  61.3380000 157.1210000
  66.8870000  60.7250000 156.8950000  80.5720000  88.3980000 152.9630000
  81.3160000  88.9640000 153.1680000  79.8360000  89.0000000 152.8500000
  89.0000000  66.6590000 163.5290000  88.4770000  66.0110000 164.0000000
  88.5690000  67.4940000 163.7110000  47.2920000  86.1000000 145.9270000
  48.2100000  85.8690000 146.0680000  47.2990000  86.6380000 145.1340000
  82.1760000  70.6140000 137.2060000  82.3460000  71.5460000 137.0680000
  82.8460000  70.3380000 137.8320000  59.0300000  60.0370000 160.0360000
  58.4170000  60.7720000 160.0520000  59.8950000  60.4460000 160.0180000
  48.8070000  54.0360000 134.4920000  49.4620000  53.4260000 134.8310000
  49.0510000  54.1630000 133.5750000  38.6550000  60.1160000 163.0400000
  39.5010000  59.8720000 163.4150000  38.7070000  61.0650000 162.9250000
  58.6920000  31.8550000 125.6040000  57.9950000  31.7310000 124.9600000
  59.1690000  31.0250000 125.6050000  73.9580000  31.0170000 147.7210000
  74.8590000  31.0000000 147.3970000  73.4180000  31.0010000 146.9310000
  70.1350000  65.7510000 149.9720000  70.6500000  64.9980000 150.2620000
  69.2340000  65.4280000 149.9440000  85.8430000  62.5580000 144.9760000
  85.2920000  63.2210000 145.3930000  86.7370000  62.8040000 145.2150000
  51.9290000  58.9620000 151.7030000  51.7020000  59.8700000 151.9010000
  52.3920000  59.0080000 150.8660000  44.6240000  45.2670000 125.5190000
  44.3940000  46.1790000 125.6970000  44.0260000  45.0010000 124.8200000
  58.4450000  43.3660000 150.5330000  59.3460000  43.1710000 150.2750000
  58.1670000  42.5980000 151.0330000  75.0570000  75.4320000 123.5610000
  74.2170000  75.8890000 123.5190000  74.8280000  74.5040000 123.5000000
  31.9540000  86.3880000 137.0650000  32.2190000  86.3560000 137.9830000
  31.0000000  86.3090000 137.0870000  68.9980000  51.7340000 132.8880000
  68.0750000  51.8590000 132.6690000  69.0370000  50.8570000 133.2710000
  67.6620000  54.7730000 136.3910000  68.3250000  54.3590000 136.9430000
  66.8270000  54.5150000 136.7830000  71.3240000  78.4440000 132.0940000
  71.9310000  78.9680000 132.6170000  70.5170000  78.9580000 132.0750000
  80.4820000  31.3780000 147.0440000  80.2170000  32.2970000 147.0630000
  80.0950000  31.0000000 147.8340000  88.9990000  42.1180000 157.0150000
  89.0000000  41.1660000 157.1140000  88.0740000  42.3480000 156.9230000
  53.2620000  38.6010000 153.6370000  53.3300000  38.1530000 152.7930000
  53.1510000  39.5240000 153.4100000  84.4700000  67.6960000 134.6810000
  85.1110000  68.1760000 135.2030000  84.1660000  66.9950000 135.2580000
  80.8000000  54.7510000 131.7200000  81.3320000  54.1180000 132.2020000
  80.1730000  55.0780000 132.3650000  40.3020000  57.5540000 151.3730000
  39.7940000  58.0640000 150.7430000  41.0920000  58.0750000 151.5220000
  81.2180000  59.9950000 125.9830000  81.2110000  59.0550000 125.8070000
  82.0700000  60.1570000 126.3900000  74.2100000  31.0270000 124.8600000
  73.4240000  31.0000000 125.4040000  73.8810000  31.0000000 123.9610000
  79.7570000  63.8240000 159.0230000  79.5530000  62.9890000 159.4430000
  78.9060000  64.2450000 158.8990000  47.9920000  64.3430000 164.0000000
  47.5250000  64.1060000 163.1990000  48.0750000  65.2960000 163.9560000
  60.0180000  60.3910000 127.9710000  59.1170000  60.5690000 127.7010000
  59.9410000  59.6720000 128.5990000  78.2250000  39.4530000 125.2100000
  77.6930000  39.6870000 125.9700000  78.6740000  38.6480000 125.4690000
  62.4300000  58.6220000 134.0220000  62.8740000  57.7760000 134.0630000
  62.4640000  58.9540000 134.9200000  76.9920000  70.3870000 131.1980000
  77.9160000  70.5450000 131.0080000  76.6060000  70.1670000 130.3500000
  45.2430000  66.3290000 129.5270000  45.0010000  66.8900000 130.2630000
  46.0430000  65.8880000 129.8140000  59.0720000  67.6330000 142.2210000
  59.7740000  67.3340000 142.7990000  58.6010000  66.8330000 141.9830000
  31.0030000  59.0160000 156.5910000  31.0000000  59.9710000 156.6530000
  31.0320000  58.7170000 157.5000000  60.9020000  61.8800000 136.0580000
  61.4440000  61.1480000 135.7620000  60.4250000  62.1570000 135.2750000
  45.8720000  52.9780000 159.7390000  45.5630000  52.0770000 159.8310000
  46.8090000  52.9300000 159.9320000  32.1550000  43.1450000 147.6950000
  31.7020000  42.3020000 147.7100000  33.0850000  42.9170000 147.6870000
  36.9860000  77.6240000 146.4020000  37.7620000  77.3340000 145.9220000
  37.3220000  78.2480000 147.0460000  71.3220000  67.7660000 128.3160000
  70.4110000  67.6420000 128.5820000  71.3750000  68.6890000 128.0670000
  54.7190000  53.3310000 141.1990000  54.3490000  52.4510000 141.1400000
  55.6550000  53.1900000 141.3430000  59.4940000  51.7240000 143.5640000
  59.7360000  51.2740000 142.7550000  60.3210000  52.0600000 143.9090000
  58.6280000  33.6670000 163.4010000  57.9870000  34.1020000 163.9630000
  59.3170000  33.3780000 164.0000000  55.6730000  46.3050000 161.4890000
  56.4560000  46.8320000 161.6510000  55.9930000  45.4030000 161.4570000
  84.0360000  31.1440000 163.9120000  83.9930000  32.0960000 164.0000000
  84.3730000  31.0000000 163.0270000  45.9920000  42.5120000 163.1460000
  46.4120000  42.4090000 164.0000000  46.6070000  42.1180000 162.5270000
  73.5360000  54.1020000 125.3680000  73.4480000  53.1690000 125.1760000
  74.4430000  54.2040000 125.6580000  51.3610000  78.8760000 138.6080000
  50.7530000  78.9410000 137.8710000  50.8590000  78.4360000 139.2950000
  69.7850000  51.2000000 159.4670000  69.3130000  50.7520000 158.7650000
  69.1030000  51.4570000 160.0880000  58.2900000  56.6190000 138.1840000
  58.5980000  55.9450000 137.5800000  59.0870000  56.9550000 138.5950000
  76.6120000  36.4980000 139.5670000  75.8640000  36.1190000 139.1060000
  76.8930000  37.2260000 139.0120000  67.0560000  45.8650000 156.1340000
  66.3260000  46.0410000 156.7270000  66.6530000  45.8150000 155.2660000
  70.8380000  63.1090000 157.1340000  70.8890000  62.3580000 156.5440000
  71.5940000  63.0110000 157.7130000  41.2810000  60.5250000 154.1350000
  41.8490000  59.7590000 154.0550000  41.8830000  61.2690000 154.1530000
  41.1150000  80.8630000 127.9800000  41.6590000  81.6480000 127.9340000
  41.7320000  80.1360000 127.8900000  84.0910000  31.0110000 157.5520000
  83.4250000  31.1120000 156.8720000  84.9210000  31.0000000 157.0750000
  50.4640000  31.1820000 155.8660000  51.0630000  31.6690000 155.3010000
  49.7050000  31.0000000 155.3110000  88.4140000  35.8120000 123.5060000
  89.0000000  35.0550000 123.5110000  89.0000000  36.5690000 123.5000000
  39.5510000  50.2760000 126.8000000  40.0810000  50.3300000 126.0050000
  40.1400000  50.5550000 127.5010000  68.0590000  63.1910000 149.7800000
  68.3490000  62.3190000 149.5110000  67.2510000  63.0350000 150.2680000
  49.4990000  43.7630000 138.4460000  50.2420000  43.3640000 137.9950000
  48.7470000  43.2300000 138.1880000  33.8320000  33.4990000 163.1030000
  33.7030000  32.7220000 162.5600000  33.8530000  33.1650000 164.0000000
  62.7600000  33.2280000 146.0450000  62.4240000  33.7130000 145.2910000
  63.6990000  33.1430000 145.8770000  73.4960000  64.3520000 141.3490000
  73.5530000  63.7870000 140.5790000  74.3300000  64.2240000 141.8030000
  57.1630000  42.0190000 142.1190000  56.5990000  42.7860000 142.2200000
  56.5790000  41.2730000 142.2560000  31.3080000  78.7630000 147.9510000
  31.0190000  77.8820000 147.7130000  31.0000000  78.8820000 148.8500000
  33.5590000  67.8200000 136.7920000  33.1700000  68.6850000 136.9250000
  34.4710000  68.0000000 136.5610000  67.2260000  42.5270000 149.1700000
  67.4520000  43.4570000 149.1630000  66.2690000  42.5130000 149.1780000
  50.9750000  86.5490000 145.0340000  51.9150000  86.3770000 145.0950000
  50.9100000  87.5010000 144.9520000  88.8760000  47.1690000 145.0240000
  88.5920000  47.4390000 144.1500000  89.0000000  46.2220000 144.9540000
  47.4170000  82.2590000 160.0070000  47.9880000  83.0250000 160.0610000
  48.0180000  81.5130000 159.9990000  68.7060000  60.9190000 138.6100000
  67.7940000  60.7080000 138.8120000  69.1820000  60.1040000 138.7700000
  67.2500000  41.6770000 159.9210000  68.0530000  42.1790000 159.7840000
  67.4790000  40.7820000 159.6690000  60.4590000  39.0850000 149.1580000
  59.5840000  38.9100000 148.8120000  60.3890000  39.9510000 149.5620000
  54.6470000  53.3120000 135.4580000  53.8910000  52.8210000 135.7800000
  54.2760000  53.9540000 134.8520000  85.8020000  43.6130000 158.7030000
  85.5760000  43.1310000 157.9080000  86.6530000  44.0080000 158.5110000
  45.0860000  80.6740000 163.9800000  45.6810000  79.9250000 164.0000000
  44.7220000  80.6680000 163.0940000  65.1220000  31.0030000 145.0350000
  65.5310000  31.6740000 144.4890000  65.6410000  31.0000000 145.8400000
  48.2100000  54.6150000 155.5840000  49.1320000  54.7480000 155.8040000
  48.2050000  54.4990000 154.6340000  65.0770000  57.9660000 163.9930000
  65.2260000  58.9110000 163.9880000  65.9550000  57.5850000 164.0000000
  31.3620000  74.3560000 161.3870000  31.5030000  74.7620000 162.2420000
  31.2920000  75.0930000 160.7800000  88.9880000  61.5250000 135.9850000
  89.0000000  60.7230000 135.4620000  88.0780000  61.8210000 135.9500000
  67.2570000  68.0560000 141.3330000  66.6410000  68.5880000 140.8300000
  67.5060000  67.3490000 140.7370000  80.3400000  77.3260000 159.0980000
  80.4310000  78.2580000 158.8980000  79.5490000  77.0560000 158.6300000
  80.3530000  84.1990000 130.6730000  81.1420000  84.1290000 131.2090000
  80.6770000  84.3990000 129.7940000  47.0830000  85.1790000 140.5450000
  46.1750000  84.9360000 140.7210000  47.5290000  84.3450000 140.3910000
  55.3930000  58.6020000 146.3010000  55.1530000  58.7780000 145.3910000
  54.8970000  59.2460000 146.8090000  57.5170000  65.4790000 131.7310000
  57.3570000  65.3230000 132.6610000  58.3340000  65.0130000 131.5460000
  43.2060000  55.0490000 139.8790000  43.7600000  55.6780000 140.3400000
  43.1730000  54.2880000 140.4590000  31.2530000  68.3750000 148.2120000
  31.0100000  67.4580000 148.3360000  32.1890000  68.3510000 148.0100000
  72.6410000  54.2340000 143.7360000  72.6540000  53.2960000 143.9250000
  72.5260000  54.2860000 142.7860000  61.5980000  50.8610000 163.9960000
  61.0140000  50.1020000 163.9890000  62.4790000  50.4860000 164.0000000
  45.6050000  47.0390000 161.0090000  45.2170000  47.9140000 161.0120000
  46.5500000  47.1960000 161.0150000  67.4170000  48.1020000 158.6930000
  68.0630000  47.4000000 158.6150000  67.7720000  48.8150000 158.1620000
  61.2190000  36.8490000 132.4110000  61.9280000  36.4920000 131.8760000
  60.7310000  37.4170000 131.8140000  61.3020000  31.5510000 123.5030000
  61.9800000  31.0000000 123.8930000  60.5180000  31.0000000 123.5000000
  36.4260000  88.9990000 150.4520000  36.7280000  88.9990000 149.5440000
  36.2590000  88.0770000 150.6480000  65.1790000  56.9480000 143.0990000
  65.4060000  56.0190000 143.1040000  65.9150000  57.3730000 142.6580000
  65.7570000  79.5060000 163.2210000  66.1720000  79.8760000 164.0000000
  64.8440000  79.3740000 163.4750000  34.8090000  47.4840000 152.1930000
  34.5330000  47.2510000 153.0790000  35.1010000  46.6580000 151.8070000
  60.6530000  87.3730000 154.5020000  60.2380000  86.9630000 155.2600000
  59.9240000  87.6150000 153.9310000  52.7940000  41.4590000 158.7480000
  53.1710000  41.2780000 159.6090000  51.8490000  41.4800000 158.9010000
  43.7280000  86.4920000 139.6960000  44.2590000  86.9850000 139.0710000
  43.0480000  87.1080000 139.9710000  31.0170000  55.0730000 161.8770000
  31.9460000  55.2980000 161.9200000  31.0000000  54.1160000 161.9020000
  61.1580000  48.7350000 141.0730000  61.1340000  49.6380000 141.3890000
  60.3900000  48.6590000 140.5050000  51.0570000  55.1310000 130.4380000
  51.6560000  54.4240000 130.1960000  51.0960000  55.1610000 131.3940000
  56.5710000  55.5170000 131.7840000  56.4520000  54.5690000 131.7410000
  56.1580000  55.8480000 130.9860000  46.1380000  37.0080000 128.5310000
  46.3740000  37.9350000 128.5140000  45.1830000  37.0030000 128.4630000
  44.3470000  84.2100000 134.7630000  44.9090000  83.6240000 135.2700000
  43.5140000  84.2130000 135.2350000  67.4980000  41.1510000 134.1440000
  67.5590000  40.2030000 134.2640000  68.0480000  41.3310000 133.3810000
  37.0280000  55.3660000 142.5160000  37.5090000  54.7800000 143.1010000
  36.1480000  54.9920000 142.4730000  68.4560000  61.7450000 141.1030000
  69.3850000  61.9730000 141.0740000  68.1690000  62.0180000 141.9750000
  70.6620000  44.3480000 159.5700000  70.4570000  43.4620000 159.2720000
  70.4780000  44.9040000 158.8120000  41.5680000  40.7310000 154.8460000
  40.9180000  40.0600000 155.0560000  41.1900000  41.5450000 155.1790000
  40.2030000  40.8250000 159.7260000  39.3420000  40.9330000 159.3210000
  40.6810000  40.2550000 159.1230000  70.4830000  64.9550000 130.5050000
  71.0050000  65.7530000 130.4200000  69.5770000  65.2640000 130.5320000
  65.0220000  88.2140000 156.1880000  65.5220000  89.0000000 155.9690000
  64.7660000  88.3400000 157.1020000  82.3430000  81.5230000 154.8420000
  81.4290000  81.2700000 154.9730000  82.8130000  80.6930000 154.7630000
  45.4690000  34.6150000 130.2340000  44.8660000  35.3520000 130.3300000
  46.3140000  35.0210000 130.0380000  69.3490000  66.7150000 143.2130000
  69.7270000  66.4400000 142.3780000  68.4030000  66.6740000 143.0730000
  75.3960000  59.4570000 160.4690000  76.0200000  60.0970000 160.8110000
  75.9300000  58.6920000 160.2550000  63.9800000  41.0720000 159.7580000
  64.7880000  41.5210000 159.5110000  64.1930000  40.1410000 159.6900000
  65.0350000  40.5820000 151.2640000  64.1680000  40.2610000 151.5110000
  65.4210000  39.8680000 150.7580000  85.0110000  50.2610000 151.5950000
  85.2680000  50.9290000 150.9600000  85.2040000  49.4300000 151.1610000
  83.4000000  60.1060000 130.6880000  82.7380000  59.5650000 131.1180000
  83.6220000  59.6260000 129.8900000  61.1920000  68.9290000 163.9990000
  60.8510000  69.8230000 164.0000000  60.4130000  68.3750000 163.9420000
  65.9770000  88.8790000 135.2870000  65.4990000  88.0690000 135.4630000
  65.9320000  88.9820000 134.3360000  60.9720000  87.8190000 148.2320000
  61.5230000  87.3000000 147.6460000  61.3890000  88.6800000 148.2540000
  31.0000000  78.6510000 151.5220000  31.9070000  78.3470000 151.5500000
  31.0680000  79.6050000 151.4890000  64.7580000  58.1870000 158.1890000
  65.4020000  58.8790000 158.3410000  65.1940000  57.5810000 157.5900000
  39.7670000  47.7080000 133.6090000  40.6290000  47.3000000 133.5350000
  39.1580000  46.9710000 133.6710000  85.2860000  60.5660000 161.5410000
  84.3720000  60.2840000 161.4960000  85.2390000  61.5180000 161.6240000
  50.3860000  62.0630000 144.3750000  49.8130000  61.4330000 144.8120000
  51.2170000  61.5980000 144.2700000  31.7740000  78.2680000 133.2300000
  32.1820000  77.4180000 133.3940000  31.0000000  78.0640000 132.7040000
  44.2430000  31.0750000 128.6260000  45.1940000  31.1340000 128.5430000
  44.0870000  31.0000000 129.5680000  31.2720000  78.8800000 144.4220000
  32.2260000  78.9450000 144.4360000  31.0000000  79.1480000 145.3000000
  83.6470000  63.3630000 150.3220000  83.0020000  62.6920000 150.5460000
  84.2470000  62.9280000 149.7170000  82.1790000  61.1960000 135.8100000
  81.9110000  61.8640000 135.1790000  82.1540000  60.3760000 135.3160000
  75.0470000  78.0880000 130.7660000  75.0690000  79.0390000 130.6630000
  74.1190000  77.8600000 130.7020000  45.8020000  49.0420000 134.8290000
  45.7980000  48.2440000 134.3010000  45.7640000  48.7310000 135.7340000
  53.7640000  53.9960000 128.9220000  54.1440000  54.4210000 129.6910000
  54.3820000  53.2980000 128.7030000  79.5910000  37.6500000 136.3230000
  78.8950000  37.0030000 136.2040000  80.3680000  37.1310000 136.5330000
  48.4830000  34.9650000 152.5310000  48.1540000  35.8270000 152.7830000
  47.7410000  34.3750000 152.6680000  31.1070000  72.6720000 140.5990000
  31.1360000  72.0040000 141.2840000  31.0000000  73.4970000 141.0730000
  65.9160000  67.2980000 143.7630000  66.3980000  68.0470000 144.1150000
  65.9240000  66.6540000 144.4710000  59.3560000  65.1470000 152.1790000
  59.4100000  66.0830000 152.3690000  58.4330000  64.9960000 151.9760000
  66.8200000  71.1950000 139.0050000  66.4290000  70.8620000 139.8120000
  67.7450000  71.3160000 139.2180000  67.4200000  73.2200000 129.5420000
  67.9480000  73.9640000 129.2510000  67.1430000  72.7910000 128.7320000
  77.5020000  85.2900000 138.1430000  77.3830000  86.2380000 138.1860000
  78.4500000  85.1700000 138.0820000  83.2720000  58.8560000 163.9470000
  82.5460000  59.4780000 163.9210000  82.8510000  57.9980000 164.0000000
  36.9570000  58.6990000 133.2520000  36.5590000  58.5390000 134.1080000
  36.6120000  58.0020000 132.6930000  58.4730000  67.8730000 123.9440000
  57.9670000  67.1930000 123.5000000  59.3550000  67.7910000 123.5790000
  61.4010000  37.2380000 125.9470000  61.4090000  37.4590000 126.8780000
  61.2930000  36.2860000 125.9280000  75.3010000  38.5240000 146.3880000
  74.5590000  38.3530000 145.8090000  75.2260000  39.4540000 146.6060000
  75.8300000  86.6810000 123.5000000  76.2510000  85.8210000 123.5000000
  74.8920000  86.4880000 123.5000000  54.6360000  34.4000000 159.1850000
  53.8910000  33.8050000 159.2780000  54.4580000  35.1060000 159.8070000
  76.7600000  56.2940000 130.9680000  77.6950000  56.1640000 130.8100000
  76.3960000  55.4090000 130.9990000  70.0170000  72.2790000 124.9630000
  70.4850000  72.3230000 124.1300000  70.6700000  72.5230000 125.6190000
  33.0560000  48.2570000 136.7950000  33.6610000  47.8040000 136.2070000
  33.4380000  48.1430000 137.6660000  36.6210000  89.0000000 146.3150000
  37.0460000  88.9590000 145.4590000  37.2160000  88.5320000 146.9010000
  45.8740000  38.5160000 126.0220000  44.9500000  38.2680000 126.0420000
  46.3460000  37.6830000 126.0250000  72.9790000  47.1720000 159.1670000
  72.6070000  46.3360000 158.8880000  73.4940000  47.4690000 158.4170000
  63.5650000  58.9960000 139.0510000  63.0630000  59.8050000 138.9600000
  63.2540000  58.6110000 139.8710000  61.3520000  88.1020000 151.8990000
  60.4790000  88.1470000 151.5090000  61.6810000  89.0000000 151.8550000
  59.4150000  51.1880000 123.9450000  60.2370000  50.7390000 123.7470000
  59.3920000  51.2350000 124.9010000  55.0220000  61.7560000 133.1620000
  55.5670000  62.5320000 133.2930000  55.6460000  61.0380000 133.0610000
  33.9020000  43.6360000 145.2120000  33.2850000  42.9330000 145.0110000
  33.3480000  44.3800000 145.4510000  51.4180000  31.1530000 126.2140000
  51.6660000  32.0500000 126.4400000  50.5660000  31.2420000 125.7850000
  47.2110000  75.7470000 154.3590000  46.2770000  75.8050000 154.5600000
  47.2780000  75.0230000 153.7370000  57.4610000  85.3850000 159.8900000
  56.6380000  85.6540000 159.4820000  57.2040000  84.7250000 160.5340000
  53.0730000  78.9360000 123.5760000  53.6840000  78.2030000 123.5000000
  53.6260000  79.7160000 123.5190000  32.6380000  58.1310000 136.4310000
  32.1160000  57.3310000 136.3900000  33.3000000  57.9520000 137.0990000
  83.6540000  80.1470000 148.5220000  83.4830000  79.2050000 148.5230000
  84.6090000  80.2170000 148.5200000  53.2650000  36.8070000 161.6650000
  54.1410000  36.7950000 162.0520000  53.3000000  37.5070000 161.0130000
  66.6940000  49.0930000 138.8700000  66.8970000  48.1580000 138.8680000
  67.4040000  49.4940000 138.3680000  74.9570000  62.6390000 147.1230000
  75.8150000  63.0270000 147.2900000  74.7130000  62.2280000 147.9530000
  53.1770000  74.7040000 158.7420000  52.6440000  75.4310000 159.0640000
  53.7270000  74.4610000 159.4860000  50.3280000  63.0390000 151.9690000
  49.7450000  62.4900000 152.4930000  51.1080000  62.4990000 151.8340000
  40.6390000  57.6970000 126.0910000  40.6810000  57.7480000 127.0460000
  41.0500000  58.5070000 125.7890000  49.2980000  58.7250000 126.4840000
  49.4900000  59.3260000 127.2040000  48.3720000  58.8740000 126.2890000
  82.8980000  73.1970000 158.4460000  83.6750000  73.3260000 157.9040000
  83.1160000  73.6110000 159.2820000  70.7380000  55.9860000 148.9700000
  70.5520000  55.5700000 149.8120000  70.3460000  56.8570000 149.0410000
  64.1760000  50.6390000 130.8360000  64.7820000  49.9310000 130.6180000
  64.6970000  51.4370000 130.7420000  43.2610000  77.2530000 156.7330000
  42.8050000  77.1690000 157.5700000  44.0810000  76.7750000 156.8580000
  49.7400000  81.2180000 147.8150000  50.1650000  80.5350000 147.2970000
  48.8730000  81.3150000 147.4200000  36.6470000  68.3440000 163.8200000
  36.8560000  67.4230000 163.6660000  37.4930000  68.7550000 164.0000000
  62.0110000  53.7840000 144.8750000  62.5740000  54.3690000 145.3810000
  61.9810000  54.1740000 144.0020000  47.7540000  58.1690000 155.0430000
  48.2720000  58.8440000 155.4810000  48.3720000  57.4540000 154.8880000
  87.8460000  69.0360000 154.7630000  88.7660000  69.2940000 154.7220000
  87.6640000  68.9410000 155.6980000  76.3340000  33.0020000 154.5480000
  77.2640000  32.9850000 154.7740000  75.8820000  32.9890000 155.3920000
  67.0450000  42.1970000 139.8090000  66.3390000  42.2400000 139.1640000
  67.5710000  41.4430000 139.5400000  88.9980000  85.6580000 128.6020000
  89.0000000  86.4300000 129.1680000  89.0000000  84.9160000 129.2080000
  59.1360000  65.2160000 147.5030000  59.6040000  64.3820000 147.4860000
  58.2220000  64.9820000 147.3360000  31.6100000  46.3970000 135.9540000
  31.0660000  45.6790000 136.2770000  31.0000000  47.1250000 135.8330000
  77.8410000  76.9680000 150.4150000  78.0700000  77.6610000 149.7960000
  78.6540000  76.7900000 150.8880000  88.6270000  62.3870000 148.9580000
  87.8520000  61.8300000 148.8890000  89.0000000  62.3900000 148.0770000
  63.7940000  37.5070000 153.9960000  64.3870000  36.8710000 154.3950000
  63.9460000  37.4190000 153.0550000  50.6550000  35.4800000 123.6680000
  50.7740000  35.9820000 124.4740000  51.5130000  35.0890000 123.5000000
  51.4000000  53.1620000 139.6170000  51.3860000  54.0030000 139.1600000
  52.0600000  53.2720000 140.3030000  73.4910000  82.6370000 129.7840000
  73.5190000  83.2350000 129.0370000  73.9110000  81.8370000 129.4670000
  79.5580000  65.2890000 142.9820000  79.8410000  64.6000000 142.3810000
  78.7460000  65.6230000 142.6000000  53.8480000  52.3310000 131.9380000
  54.3060000  52.8290000 132.6160000  53.2640000  52.9690000 131.5260000
  36.1870000  80.1200000 145.2800000  36.6650000  79.5520000 144.6760000
  35.3420000  79.6860000 145.4010000  86.8690000  79.2900000 137.8180000
  86.3210000  79.3410000 137.0340000  87.0650000  80.2020000 138.0330000
  73.3030000  31.6190000 141.5360000  72.5930000  31.0000000 141.3690000
  72.9080000  32.2950000 142.0880000  48.0630000  60.3780000 129.7620000
  48.2790000  61.3050000 129.8640000  47.1230000  60.3300000 129.9370000
  82.2940000  64.5700000 135.3190000  83.2220000  64.5120000 135.0920000
  82.1250000  65.5090000 135.3960000  79.4610000  73.9580000 156.8120000
  79.4030000  73.1210000 156.3520000  79.1620000  74.6050000 156.1730000
  84.5240000  44.5550000 136.8910000  83.6550000  44.2030000 136.6960000
  84.5120000  44.7160000 137.8350000  43.5120000  41.1870000 137.9050000
  42.6190000  40.8450000 137.8890000  43.7490000  41.2810000 136.9820000
  88.7620000  48.0150000 133.2620000  88.7420000  47.2400000 132.7000000
  88.8240000  47.6650000 134.1510000  54.6890000  77.9590000 136.4210000
  55.3190000  78.3870000 135.8430000  54.4480000  78.6350000 137.0560000
  86.7500000  48.6020000 161.0050000  87.0600000  49.1760000 161.7050000
  86.3700000  47.8510000 161.4610000  49.0690000  75.8460000 163.9180000
  49.8310000  75.2680000 163.9300000  49.4350000  76.7280000 164.0000000
  31.5200000  35.1760000 142.0450000  31.0000000  35.6560000 141.4010000
  31.0000000  34.3950000 142.2390000  70.5070000  86.1010000 132.6280000
  71.0300000  86.7610000 133.0830000  69.9320000  86.6050000 132.0520000
  58.5940000  35.7730000 141.7350000  58.3580000  36.7000000 141.7780000
  58.3010000  35.4120000 142.5730000  63.1080000  86.5510000 135.3860000
  63.0870000  85.5950000 135.3740000  62.1870000  86.8120000 135.3590000
  77.3210000  49.1600000 157.4020000  78.2090000  49.5130000 157.4620000
  77.4430000  48.2130000 157.3390000  37.1360000  40.8740000 141.5830000
  36.8370000  41.4000000 140.8410000  37.0730000  39.9690000 141.2770000
  80.7720000  45.2210000 161.5980000  81.2980000  45.8680000 162.0690000
  81.4000000  44.5500000 161.3300000  34.2620000  64.3550000 160.8600000
  34.5410000  63.7110000 160.2080000  35.0790000  64.6900000 161.2300000
  61.5240000  41.1850000 123.6470000  60.5770000  41.1900000 123.5080000
  61.7630000  40.2580000 123.6380000  45.8590000  49.6990000 147.1440000
  46.7750000  49.6120000 147.4090000  45.7680000  49.1040000 146.3990000
  78.1110000  64.1370000 147.8430000  78.7570000  64.6680000 148.3070000
  78.4440000  63.2420000 147.9070000  65.3710000  61.6030000 139.8520000
  66.0290000  61.8300000 140.5090000  64.6180000  61.3010000 140.3610000
  39.4320000  88.1320000 127.1950000  39.6290000  87.2190000 127.4020000
  39.6600000  88.6130000 127.9910000  35.8250000  40.1530000 126.5520000
  36.0210000  39.5100000 127.2340000  36.6060000  40.1600000 125.9980000
  82.5960000  88.4500000 132.5120000  83.2010000  88.3140000 133.2410000
  83.1590000  88.4950000 131.7380000  31.4810000  42.9720000 150.3400000
  31.0000000  43.6770000 149.9070000  31.0000000  42.1770000 150.1080000
  44.2110000  74.1590000 140.7540000  45.0660000  73.8620000 141.0660000
  43.6170000  73.4360000 140.9540000  42.4950000  42.4140000 140.1110000
  42.2290000  42.8770000 140.9050000  43.2630000  41.9060000 140.3750000
  45.5590000  31.5470000 158.3560000  44.8860000  31.0000000 157.9510000
  45.9280000  31.0000000 159.0500000  88.8160000  56.7080000 130.8310000
  87.8670000  56.7540000 130.7130000  88.9990000  55.7750000 130.9440000
  51.7530000  86.1000000 151.7740000  50.8740000  85.9930000 152.1370000
  51.6140000  86.5350000 150.9320000  49.7010000  31.0000000 139.4200000
  50.6230000  31.0200000 139.6720000  49.5050000  31.8990000 139.1530000
  78.2820000  61.5950000 163.1550000  77.8330000  61.5980000 164.0000000
  77.5770000  61.6250000 162.5080000  51.1870000  67.2200000 163.5410000
  51.7420000  66.5900000 164.0000000  50.4300000  66.7080000 163.2540000
  77.8570000  33.6320000 151.6230000  77.4490000  32.7670000 151.6510000
  77.9000000  33.9070000 152.5390000  55.7510000  31.2790000 145.5520000
  56.1730000  31.0000000 146.3650000  56.3530000  31.0000000 144.8610000
  50.8060000  67.3100000 130.5850000  50.4890000  68.2060000 130.6960000
  51.3120000  67.1340000 131.3780000  42.9480000  42.7990000 158.1670000
  42.4220000  42.0060000 158.0600000  43.0120000  42.9180000 159.1150000
  46.3150000  83.4630000 132.0130000  46.8970000  82.9250000 132.5500000
  45.7780000  83.9400000 132.6450000  73.3800000  62.5050000 126.2610000
  74.0340000  62.6840000 125.5860000  72.8090000  63.2740000 126.2510000
  49.6920000  50.3630000 147.8930000  49.2610000  49.5370000 147.6740000
  48.9730000  50.9820000 148.0230000  69.1850000  38.4370000 126.0160000
  69.1460000  37.5030000 125.8110000  68.7380000  38.5170000 126.8590000
  39.7510000  67.2390000 149.4080000  40.1390000  67.0420000 148.5560000
  40.4590000  67.0890000 150.0350000  68.0530000  85.2620000 148.9790000
  67.2630000  85.7980000 149.0520000  68.7740000  85.8900000 149.0290000
  50.2870000  45.2630000 140.3450000  50.4600000  45.0210000 141.2540000
  51.1540000  45.4230000 139.9700000  65.9550000  83.5330000 138.7500000
  65.0950000  83.7160000 138.3710000  65.8240000  82.7410000 139.2710000
  85.8790000  78.4840000 150.9820000  85.6500000  77.5630000 151.1030000
  86.3220000  78.5120000 150.1330000  80.9130000  81.1990000 152.1570000
  81.6150000  80.6800000 152.5500000  80.9600000  82.0440000 152.6050000
  76.0090000  65.6060000 155.2490000  75.7260000  65.5120000 156.1580000
  76.8530000  66.0550000 155.3050000  73.2540000  82.8600000 158.2370000
  72.8580000  82.0100000 158.0460000  73.9630000  82.6620000 158.8500000
  81.2180000  82.8840000 133.5040000  80.3760000  82.8910000 133.9590000
  81.1160000  82.2200000 132.8220000  52.9010000  47.0920000 162.0660000
  52.9980000  48.0010000 161.7830000  51.9630000  46.9910000 162.2320000
  70.1210000  66.0930000 125.7190000  70.0740000  66.9100000 126.2160000
  69.2060000  65.8520000 125.5670000  41.9400000  87.1660000 134.9890000
  41.0860000  86.9080000 134.6420000  42.2740000  86.3760000 135.4150000
  76.6060000  69.5450000 158.6540000  75.8730000  69.0180000 158.9730000
  76.2000000  70.2010000 158.0860000  61.9460000  51.9280000 132.0570000
  62.7700000  52.4120000 132.0020000  62.2050000  51.0440000 132.3190000
  86.9890000  72.5010000 145.1150000  86.9790000  71.5550000 145.2630000
  86.5230000  72.8660000 145.8680000  66.3750000  33.4490000 127.5720000
  65.9470000  34.1820000 128.0140000  65.8390000  33.2920000 126.7940000
  56.5880000  45.5550000 148.0700000  56.0560000  45.8200000 147.3210000
  56.5550000  46.3040000 148.6650000  68.4260000  80.2940000 131.5440000
  68.4240000  80.3770000 132.4980000  68.8010000  81.1170000 131.2320000
  39.3510000  75.7530000 133.7120000  39.1580000  75.2020000 132.9540000
  38.9970000  75.2660000 134.4580000  39.9230000  43.2220000 144.8730000
  39.2080000  42.5880000 144.8340000  40.7160000  42.6870000 144.9260000
  56.7930000  61.3040000 140.4260000  57.2210000  62.1330000 140.2090000
  56.5760000  60.9170000 139.5780000  34.4110000  75.3260000 141.2050000
  33.9820000  76.1760000 141.3060000  35.2710000  75.4410000 141.6100000
  60.4980000  69.8350000 161.5230000  59.5420000  69.8190000 161.5570000
  60.7230000  70.7650000 161.5070000  76.1310000  56.2550000 161.3850000
  75.3960000  56.7540000 161.7410000  75.8160000  55.3510000 161.3590000
  49.4240000  86.6060000 149.6140000  49.3460000  85.6540000 149.6660000
  49.1620000  86.9160000 150.4810000  83.2580000  82.7440000 136.2370000
  83.7860000  82.0970000 136.7040000  83.8120000  83.5240000 136.2000000
  41.6840000  71.4740000 157.9870000  41.0390000  70.7670000 157.9860000
  41.1610000  72.2760000 157.9850000  73.2930000  78.8200000 148.0860000
  73.1830000  78.4540000 147.2080000  73.4370000  79.7560000 147.9390000
  70.9880000  39.7080000 163.9870000  70.6970000  38.7970000 164.0000000
  70.9220000  39.9690000 163.0680000  67.0860000  36.6600000 144.0220000
  66.1360000  36.5450000 144.0080000  67.4360000  35.7680000 144.0330000
  51.3020000  37.5620000 145.6030000  50.9740000  38.0840000 144.8710000
  50.7900000  37.8580000 146.3570000  84.1150000  83.7190000 154.3550000
  83.1740000  83.8880000 154.3930000  84.2870000  83.1500000 155.1060000
  66.4500000  37.6580000 146.2230000  66.2970000  38.5280000 145.8550000
  67.3930000  37.6320000 146.3920000  62.6870000  83.4530000 140.0600000
  62.4250000  83.0300000 140.8780000  63.0910000  82.7520000 139.5470000
  53.9900000  47.7390000 131.6420000  54.1370000  47.3770000 130.7690000
  54.3420000  47.0780000 132.2390000  45.0970000  32.8310000 138.6860000
  44.6120000  32.6050000 139.4800000  44.4690000  33.3190000 138.1520000
  78.1480000  76.4250000 153.7910000  77.3500000  76.2560000 154.2910000
  77.9430000  77.1990000 153.2650000  79.0890000  84.9530000 145.4270000
  78.6610000  84.4110000 146.0890000  79.9700000  84.5870000 145.3500000
  31.5690000  86.0220000 155.4180000  31.0000000  86.4840000 156.0340000
  32.4570000  86.2340000 155.7060000  72.8630000  51.1750000 129.5790000
  73.3050000  51.8150000 130.1360000  72.6830000  51.6470000 128.7660000
  43.2130000  71.5940000 125.8020000  43.6910000  72.4020000 125.9840000
  42.2920000  71.8560000 125.7910000  31.0340000  34.5360000 124.5600000
  31.0000000  34.7400000 123.6260000  31.0000000  35.3900000 124.9930000
  44.8590000  70.0630000 155.3110000  44.2880000  70.1520000 156.0740000
  44.6650000  70.8330000 154.7750000  48.5190000  68.1850000 134.8200000
  48.9440000  68.9110000 135.2780000  47.9020000  68.6070000 134.2210000
  42.6280000  58.0690000 123.5590000  43.1190000  58.3870000 124.3160000
  42.8530000  57.1400000 123.5000000  70.4830000  46.1340000 145.4740000
  69.6530000  46.5030000 145.7740000  70.2460000  45.2840000 145.1000000
  70.7830000  49.3960000 145.3300000  70.5120000  49.0220000 146.1670000
  70.9220000  48.6380000 144.7610000  51.5610000  83.3710000 154.0960000
  51.8030000  83.9830000 153.4020000  52.3920000  83.1290000 154.5040000
  85.7840000  59.3170000 157.5850000  85.9510000  59.4410000 158.5200000
  84.8380000  59.1840000 157.5260000  83.6470000  82.5050000 152.2030000
  83.8860000  81.7860000 152.7870000  83.4740000  82.0830000 151.3610000
  68.9280000  46.4280000 142.9570000  68.3570000  45.8900000 142.4070000
  69.8100000  46.1030000 142.7770000  85.8120000  88.9890000 152.9160000
  84.8830000  89.0000000 152.6860000  86.0700000  88.0710000 152.8290000
  66.2650000  80.0500000 134.9100000  67.0020000  79.4700000 135.1010000
  66.4390000  80.3760000 134.0270000  33.3950000  35.1550000 127.5090000
  34.3150000  35.3810000 127.3730000  33.4140000  34.2570000 127.8390000
  86.2930000  51.1880000 138.9770000  86.4890000  51.1450000 139.9130000
  86.8590000  51.8860000 138.6450000  75.6720000  64.5090000 149.8650000
  75.4390000  63.5830000 149.9350000  76.6290000  64.5190000 149.8900000
  55.6590000  34.9410000 131.1580000  55.7980000  35.7720000 130.7040000
  55.0760000  34.4470000 130.5820000  36.7210000  74.1780000 146.2560000
  36.9540000  73.3130000 146.5940000  37.0170000  74.7880000 146.9310000
  37.7400000  64.1320000 123.8050000  38.3960000  63.4870000 123.5410000
  36.9090000  63.7670000 123.5000000  66.2060000  43.7590000 136.1600000
  67.0430000  43.5630000 135.7400000  66.0830000  43.0520000 136.7940000
  45.2830000  39.2300000 140.4710000  44.9650000  38.3650000 140.2150000
  44.8940000  39.8280000 139.8310000  62.8540000  72.4270000 140.2850000
  62.6920000  72.7150000 139.3870000  62.0830000  71.9060000 140.5130000
  64.1840000  75.5870000 155.6390000  63.4220000  75.2470000 155.1690000
  63.8550000  76.3570000 156.1030000  62.0540000  41.8080000 147.0340000
  61.6130000  42.3730000 147.6680000  61.8130000  42.1710000 146.1810000
  41.6340000  86.0730000 149.1130000  41.5340000  86.0210000 148.1630000
  42.3650000  86.6770000 149.2450000  76.6500000  50.6550000 135.2980000
  75.7020000  50.7370000 135.1970000  76.7940000  49.7230000 135.4670000
  34.4220000  37.9240000 159.4200000  35.3540000  38.1300000 159.3650000
  33.9810000  38.7570000 159.2510000  60.8770000  83.1070000 154.8210000
  61.5950000  82.8330000 154.2500000  61.1690000  83.9420000 155.1890000
  54.2840000  40.7450000 133.5090000  53.6030000  40.1040000 133.3050000
  55.0430000  40.4580000 133.0000000  40.9940000  37.6620000 148.5790000
  41.4130000  38.0520000 147.8120000  40.8520000  36.7470000 148.3350000
  43.4990000  86.0060000 127.7360000  43.4530000  85.3810000 128.4590000
  42.5850000  86.1540000 127.4890000  53.1680000  39.8360000 138.3880000
  53.9330000  39.2980000 138.1860000  53.4780000  40.7370000 138.2980000
  52.8010000  49.9490000 133.3160000  53.5580000  49.9750000 132.7310000
  52.6760000  50.8590000 133.5860000  39.4300000  65.7120000 156.8390000
  39.0560000  64.8630000 156.6040000  38.6770000  66.2400000 157.1070000
  50.5040000  39.5730000 149.4060000  49.9970000  40.3250000 149.7110000
  50.0430000  39.2750000 148.6220000  44.6760000  35.8150000 153.1570000
  44.2000000  35.5330000 152.3760000  45.5950000  35.6330000 152.9570000
  66.3990000  83.5800000 161.3410000  65.5280000  83.8590000 161.6230000
  66.4500000  83.8460000 160.4220000  63.2720000  56.7500000 162.6130000
  63.4990000  56.0140000 163.1800000  63.9570000  56.7590000 161.9450000
  76.4920000  60.0000000 125.2820000  76.5970000  59.1970000 125.7910000
  75.5440000  60.1040000 125.1910000  37.9750000  53.5670000 140.6380000
  38.7250000  54.1150000 140.8690000  37.8910000  52.9550000 141.3700000
  75.6420000  58.5800000 157.6730000  74.7610000  58.2070000 157.6480000
  76.2220000  57.8220000 157.7430000  52.8500000  50.6530000 158.8330000
  51.9140000  50.4530000 158.8470000  52.8900000  51.6030000 158.7150000
  70.9800000  74.8190000 148.1340000  71.2920000  75.6560000 148.4770000
  70.0970000  75.0040000 147.8140000  86.5210000  60.9010000 123.6940000
  86.0150000  61.3630000 124.3620000  86.0050000  60.1180000 123.5000000
  46.8720000  39.7140000 137.5380000  46.5110000  38.9290000 137.9500000
  46.1680000  40.0350000 136.9740000  83.0750000  50.5560000 138.1450000
  83.9500000  50.5160000 137.7590000  82.5720000  51.1050000 137.5430000
  39.3030000  79.9810000 161.5360000  40.2400000  79.8030000 161.6120000
  38.9190000  79.1430000 161.2770000  44.4950000  36.9470000 132.6030000
  44.5820000  36.0630000 132.9600000  43.6350000  36.9530000 132.1830000
  49.3310000  37.8010000 126.7280000  48.5240000  37.8390000 127.2420000
  49.0380000  37.8520000 125.8170000  73.3110000  35.5490000 134.1720000
  73.5100000  35.2180000 133.2960000  73.4640000  34.8030000 134.7520000
  84.5260000  49.4400000 143.8990000  85.1130000  50.1440000 143.6260000
  83.7680000  49.8900000 144.2730000  73.5710000  41.1470000 137.1430000
  73.8860000  41.1750000 138.0460000  74.2320000  41.6260000 136.6430000
  53.6300000  42.9460000 124.9070000  53.4890000  42.7040000 125.8220000
  54.0060000  42.1620000 124.5060000  48.7750000  43.3880000 128.5550000
  49.1050000  43.9710000 127.8710000  49.5350000  42.8640000 128.8100000
  31.7490000  88.5120000 154.4860000  31.0000000  89.0000000 154.1440000
  32.5140000  88.9900000 154.1650000  57.0260000  88.5160000 163.8980000
  57.8460000  88.9980000 164.0000000  56.5440000  89.0000000 163.2270000
  40.2810000  41.3650000 141.3160000  39.6230000  40.6780000 141.4170000
  39.7760000  42.1540000 141.1180000  85.8990000  31.0000000 125.7740000
  85.9630000  31.0080000 126.7280000  85.7880000  31.9200000 125.5320000
  80.1560000  55.1230000 162.0570000  79.3850000  55.6860000 161.9890000
  80.0150000  54.6180000 162.8580000  57.4080000  89.0000000 123.9650000
  56.7480000  88.4860000 123.5000000  57.4530000  88.6020000 124.8350000
  82.6950000  46.5140000 127.4770000  82.2600000  46.6920000 128.3100000
  83.3020000  47.2450000 127.3620000  41.1590000  37.6380000 160.4380000
  40.7960000  37.4300000 159.5770000  40.6220000  38.3630000 160.7570000
  65.6970000  39.1740000 164.0000000  64.9030000  39.6860000 163.8470000
  65.4160000  38.2630000 163.9120000  62.0560000  60.9120000 154.0430000
  62.2910000  60.5480000 154.8970000  62.2430000  61.8470000 154.1220000
  55.4850000  66.2210000 159.7870000  55.1060000  65.7420000 160.5230000
  56.2390000  65.6940000 159.5200000  38.1130000  50.7810000 123.8690000
  37.6870000  51.5540000 123.5000000  37.5710000  50.0470000 123.5780000
  88.9650000  37.2730000 158.8570000  89.0000000  38.1330000 158.4390000
  88.0450000  37.1600000 159.0970000  80.7890000  42.0600000 160.1210000
  81.4900000  41.4190000 160.2400000  80.0930000  41.5750000 159.6770000
  84.9780000  40.9640000 137.1770000  85.7920000  40.5630000 136.8750000
  84.9600000  40.7900000 138.1190000  75.2580000  62.4110000 133.2310000
  75.5900000  61.5140000 133.2230000  75.8870000  62.9040000 132.7020000
  49.1720000  74.0010000 142.0090000  49.7510000  74.7630000 142.0000000
  49.7630000  73.2490000 141.9790000  40.6090000  32.5070000 159.3980000
  39.6530000  32.4990000 159.3920000  40.8410000  33.4310000 159.4890000
  42.0140000  49.5960000 132.9830000  42.1850000  50.3270000 132.3900000
  41.5370000  49.9880000 133.7150000  46.2100000  75.1550000 134.0780000
  45.4280000  74.8070000 134.5040000  46.6080000  75.7260000 134.7360000
  39.6710000  81.9020000 138.7800000  39.1290000  81.1190000 138.6870000
  39.0430000  82.6240000 138.8280000  31.0000000  76.6190000 142.5880000
  31.8900000  76.8890000 142.8130000  31.0880000  76.1880000 141.7380000
  83.7730000  42.9990000 161.8040000  83.6890000  43.3130000 160.9040000
  82.9490000  42.5420000 161.9770000  82.7580000  73.8460000 143.2390000
  83.0130000  74.5680000 142.6650000  81.8950000  74.0960000 143.5710000
  64.7840000  73.4760000 128.2650000  65.1820000  74.3210000 128.4740000
  63.8880000  73.6910000 128.0070000  37.5510000  47.9320000 125.3630000
  38.3930000  48.3850000 125.3190000  36.9830000  48.5280000 125.8510000
  86.3320000  45.3020000 141.1060000  85.4920000  45.6690000 140.8310000
  86.8620000  45.2900000 140.3090000  40.0460000  31.0000000 151.2280000
  39.9550000  31.8590000 150.8150000  39.3990000  31.0040000 151.9340000
  58.2890000  82.6770000 133.3130000  57.5620000  83.1340000 133.7370000
  58.8510000  82.3980000 134.0360000  55.4460000  75.2740000 129.6710000
  56.1830000  75.1550000 129.0720000  54.8670000  74.5340000 129.4890000
  74.6930000  85.9400000 158.8320000  73.8010000  86.2610000 158.9600000
  74.8100000  85.2770000 159.5120000  67.3110000  38.0180000 123.9580000
  66.8790000  37.7060000 124.7530000  67.5750000  37.2190000 123.5000000
  54.4670000  43.4120000 137.6900000  55.1610000  42.7630000 137.8010000
  54.7080000  43.8890000 136.8960000  51.3010000  67.4830000 134.8190000
  51.0820000  68.1750000 134.1960000  51.2750000  67.9120000 135.6740000
  84.9040000  41.6190000 132.1820000  85.0240000  41.7280000 131.2390000
  85.6210000  42.1170000 132.5750000  36.2400000  55.5470000 132.3720000
  36.8270000  55.4920000 131.6190000  35.8670000  54.6680000 132.4510000
  84.8320000  35.0000000 160.1090000  85.7120000  35.3400000 159.9470000
  84.3650000  35.7290000 160.5190000  61.2280000  80.6000000 143.9970000
  61.4070000  81.4450000 143.5850000  60.2730000  80.5420000 144.0200000
  69.8150000  36.9620000 162.1850000  69.2930000  37.7630000 162.2080000
  69.2200000  36.2980000 161.8360000  85.5540000  70.3210000 124.6780000
  84.9910000  70.9140000 125.1760000  85.1880000  70.3290000 123.7930000
  36.7760000  81.6360000 140.3030000  36.9270000  80.8950000 140.8890000
  35.9100000  81.9630000 140.5470000  65.3660000  72.5640000 137.4050000
  65.0730000  72.9420000 138.2340000  66.1910000  73.0120000 137.2160000
  84.0910000  41.0820000 155.4130000  83.2380000  41.4870000 155.2570000
  83.9100000  40.3680000 156.0240000  62.0850000  42.7540000 154.2440000
  61.4380000  43.1250000 154.8440000  62.6200000  43.5010000 153.9770000
  56.3300000  67.9500000 134.3130000  55.6060000  67.8060000 134.9220000
  56.1830000  67.3150000 133.6110000  76.0600000  73.9970000 149.8000000
  76.2680000  74.3650000 148.9410000  76.8980000  73.6740000 150.1320000
  56.0170000  56.7570000 125.8860000  55.8290000  55.8190000 125.8590000
  56.9730000  56.8090000 125.9160000  31.0000000  31.0760000 147.5080000
  31.3230000  31.0000000 146.6110000  31.3540000  31.9090000 147.8210000
  43.6650000  43.1860000 148.5320000  43.3920000  43.3240000 149.4390000
  44.0760000  42.3220000 148.5330000  53.0240000  82.4270000 142.2360000
  53.8700000  82.8750000 142.2640000  53.2030000  81.6050000 141.7780000
  36.2080000  88.9170000 131.9200000  36.0280000  88.9300000 132.8600000
  37.1600000  89.0000000 131.8560000  35.8340000  42.4260000 125.0600000
  35.2340000  42.7280000 125.7410000  36.4270000  43.1640000 124.9170000
  54.0320000  60.0000000 143.1600000  53.3770000  60.5110000 143.6360000
  53.8190000  60.1360000 142.2370000  87.2510000  54.3100000 123.5470000
  86.8490000  53.4430000 123.5000000  88.1930000  54.1400000 123.5160000
  73.6700000  35.1270000 138.4350000  73.9320000  34.4980000 137.7620000
  72.7810000  35.3850000 138.1880000  81.4690000  52.6790000 126.0930000
  80.8000000  53.3600000 126.1430000  80.9920000  51.8620000 126.2390000
  57.1210000  38.5490000 131.4200000  58.0440000  38.3090000 131.4980000
  57.1320000  39.4870000 131.2320000  54.5520000  68.0590000 150.8410000
  53.5980000  68.1280000 150.8690000  54.8600000  68.9630000 150.9030000
  63.6360000  49.8920000 140.4900000  63.6960000  50.1670000 141.4050000
  64.0750000  49.0420000 140.4650000  63.0190000  53.9660000 151.2120000
  63.6710000  54.5820000 151.5440000  62.2880000  54.5170000 150.9310000
  63.6520000  37.6160000 123.5000000  64.4690000  38.0990000 123.6230000
  63.0040000  38.1100000 124.0040000  79.2370000  76.8900000 133.8580000
  80.1030000  77.2960000 133.8380000  79.1720000  76.4210000 133.0260000
  37.9790000  77.9370000 142.4740000  37.1890000  77.6390000 142.9250000
  37.7600000  78.8150000 142.1620000  74.5310000  48.5590000 131.7100000
  73.6870000  48.9860000 131.5610000  74.5530000  47.8430000 131.0740000
  59.1670000  31.1420000 151.3130000  58.2980000  31.2030000 151.7090000
  59.7590000  31.0000000 152.0530000  66.9060000  57.0720000 135.7640000
  67.8090000  57.3460000 135.9200000  66.4590000  57.8700000 135.4800000
  32.4550000  55.0590000 131.3370000  31.7080000  55.6570000 131.3380000
  32.9860000  55.3400000 130.5910000  85.5030000  83.8440000 134.3830000
  85.3030000  84.1770000 133.5080000  86.4110000  84.1080000 134.5370000
  36.7270000  53.9860000 123.5000000  36.0570000  54.6700000 123.5000000
  37.5560000  54.4640000 123.5000000  77.0200000  68.2880000 163.9300000
  77.9580000  68.4660000 164.0000000  76.9510000  67.3360000 163.9960000
  86.7200000  82.6380000 156.5540000  86.6300000  83.3740000 155.9480000
  86.5400000  83.0130000 157.4160000  52.3450000  57.5870000 162.7120000
  52.8570000  56.9330000 162.2360000  52.4300000  58.3850000 162.1900000
  79.3670000  42.7900000 162.0620000  80.0900000  42.6620000 162.6760000
  78.7340000  43.3220000 162.5450000  73.3730000  44.5870000 130.3570000
  73.3670000  45.0090000 131.2160000  73.0420000  43.7030000 130.5220000
  83.7380000  56.6870000 150.2840000  83.7550000  56.2870000 149.4150000
  83.6500000  55.9470000 150.8860000  43.1480000  51.2060000 142.8020000
  43.6350000  52.0290000 142.8020000  42.2280000  51.4710000 142.8090000
  57.4090000  31.2960000 137.0800000  57.7020000  32.2070000 137.1000000
  56.4540000  31.3520000 137.0480000  61.0150000  34.2320000 155.1680000
  61.0380000  35.0520000 155.6610000  61.9340000  33.9750000 155.0850000
  78.7950000  88.4130000 162.5260000  78.9120000  88.9990000 163.2740000
  78.6970000  89.0000000 161.7760000  62.8990000  61.4810000 159.0580000
  63.3930000  60.6680000 158.9530000  61.9890000  61.2310000 158.8990000
  41.6850000  36.4740000 140.6710000  40.8110000  36.0900000 140.7390000
  41.8280000  36.8960000 141.5190000  85.4780000  64.9350000 123.5020000
  86.3160000  65.3970000 123.5030000  84.8200000  65.6300000 123.5030000
  67.7440000  40.4230000 155.5320000  66.9700000  39.8600000 155.5290000
  68.4580000  39.8490000 155.8120000  31.7290000  55.8310000 123.5430000
  32.5100000  55.2790000 123.5000000  31.0000000  55.2120000 123.5880000
  65.0010000  70.7360000 129.2980000  64.9940000  69.7960000 129.4800000
  64.2790000  70.8660000 128.6820000  37.6390000  35.8600000 127.3390000
  37.4050000  34.9390000 127.2270000  36.8180000  36.2890000 127.5810000
  54.8430000  74.0890000 146.5790000  55.2050000  74.8650000 147.0070000
  54.0010000  73.9470000 147.0130000  59.8290000  80.6050000 159.2820000
  59.7650000  81.5590000 159.2510000  58.9200000  80.3030000 159.2710000
  82.9240000  88.9980000 142.2240000  83.8680000  89.0000000 142.0690000
  82.5370000  89.0000000 141.3490000  64.2410000  58.4910000 128.6340000
  63.2840000  58.4830000 128.6520000  64.4740000  59.4180000 128.6920000
  36.8540000  32.1250000 133.8140000  37.4690000  31.4250000 134.0340000
  37.3920000  32.7910000 133.3850000  79.5440000  81.1260000 158.3680000
  79.3540000  81.9890000 158.0000000  79.6010000  80.5480000 157.6060000
  68.5830000  81.0620000 155.6570000  67.9500000  81.7420000 155.8910000
  69.4250000  81.5160000 155.6350000  87.6240000  88.4140000 164.0000000
  88.3800000  89.0000000 163.9900000  86.8660000  89.0000000 163.9920000
  36.6520000  52.8670000 164.0000000  37.0310000  53.7450000 163.9990000
  37.4080000  52.2790000 164.0000000  53.2930000  57.5140000 144.1090000
  52.3740000  57.3900000 143.8750000  53.7790000  57.0230000 143.4460000
  57.1990000  31.5480000 164.0000000  57.9830000  31.0000000 163.9680000
  56.5080000  31.0000000 163.6270000  50.6610000  75.8150000 130.2340000
  50.9030000  76.7090000 129.9910000  50.2010000  75.4740000 129.4670000
  81.2180000  68.6410000 139.1910000  81.1600000  69.5450000 139.4990000
  81.6920000  68.1810000 139.8840000  51.5980000  45.9870000 137.4650000
  51.9380000  45.0960000 137.3830000  50.6460000  45.8800000 137.4850000
  46.9830000  31.5640000 145.0500000  46.3710000  31.0000000 145.5220000
  47.3410000  31.0060000 144.3590000  33.9880000  61.1020000 152.0270000
  34.6280000  60.5050000 152.4150000  33.4880000  60.5560000 151.4200000
  45.4270000  83.3810000 158.1050000  44.4880000  83.2040000 158.1430000
  45.7970000  82.6200000 157.6570000  56.1850000  70.9530000 148.7460000
  55.4140000  70.3880000 148.7080000  56.9280000  70.3530000 148.6700000
  32.6900000  64.9040000 153.0470000  33.0680000  64.8530000 153.9240000
  33.4250000  64.7290000 152.4580000  64.5760000  41.7620000 131.6530000
  65.3480000  41.3620000 132.0520000  63.8780000  41.6290000 132.2950000
  63.7360000  54.3040000 126.9640000  64.1400000  53.7110000 127.5980000
  62.8650000  54.4800000 127.3210000  61.2570000  59.0720000 157.1090000
  62.1780000  59.2000000 157.3350000  60.7970000  59.1060000 157.9480000
  45.6020000  34.4740000 161.1010000  46.2680000  34.7320000 161.7370000
  45.7510000  35.0490000 160.3500000  55.9440000  41.5450000 130.1410000
  56.4090000  41.9420000 130.8770000  55.8290000  42.2620000 129.5160000
  79.5000000  77.3820000 130.4120000  80.0170000  78.1240000 130.0980000
  80.1490000  76.7140000 130.6350000  37.3150000  80.2150000 153.5570000
  36.4690000  80.5360000 153.8690000  37.9120000  80.9540000 153.6810000
  47.1050000  46.0660000 139.3370000  46.4970000  45.3270000 139.3470000
  47.9490000  45.6800000 139.1040000  77.5080000  50.8140000 154.7090000
  76.9120000  50.0880000 154.8940000  77.8150000  51.0980000 155.5700000
  51.4860000  43.4740000 157.1570000  50.6160000  43.1190000 157.3390000
  51.3270000  44.3840000 156.9080000  46.9700000  55.1680000 123.5000000
  47.8230000  55.6020000 123.5230000  47.1770000  54.2330000 123.5000000
  56.1980000  39.3920000 148.4720000  56.1770000  40.3420000 148.3520000
  57.1030000  39.2020000 148.7210000  75.8720000  69.4860000 126.5780000
  75.6760000  69.4130000 127.5120000  75.0600000  69.2300000 126.1410000
  51.5760000  71.0380000 144.6300000  51.7340000  71.9820000 144.6400000
  52.4330000  70.6500000 144.8110000  85.9510000  43.4020000 143.4040000
  85.1690000  43.7750000 142.9990000  86.0570000  42.5490000 142.9810000
  62.7930000  47.1360000 143.2340000  62.0940000  47.5580000 143.7330000
  62.9480000  47.7230000 142.4940000  48.6630000  42.0460000 156.2050000
  47.9750000  41.4430000 156.4860000  49.0940000  41.5960000 155.4780000
  55.9610000  37.6810000 139.1880000  56.5410000  37.7280000 139.9480000
  56.3370000  38.3000000 138.5610000  43.7090000  82.7390000 124.0650000
  42.9270000  82.2050000 123.9250000  43.5840000  83.5010000 123.5000000
  69.4160000  83.6780000 141.0930000  69.1790000  83.0200000 141.7460000
  68.5780000  84.0300000 140.7920000  32.6160000  75.9890000 158.8580000
  33.1520000  75.1980000 158.8100000  33.2490000  76.7050000 158.9080000
  89.0000000  38.9330000 163.9140000  88.0830000  38.6610000 163.9580000
  88.9720000  39.8860000 164.0000000  82.1010000  40.6340000 138.2190000
  82.6380000  39.9070000 138.5330000  81.2320000  40.4650000 138.5840000
  61.3310000  88.4450000 130.8860000  60.8990000  89.0000000 130.2360000
  61.4080000  89.0000000 131.6620000  81.5940000  31.5850000 144.6930000
  80.8430000  31.0000000 144.5940000  82.3520000  31.0000000 144.7180000
  42.0220000  31.0000000 131.1240000  41.9800000  31.7500000 131.7180000
  41.3160000  31.1520000 130.4950000  44.4390000  88.8780000 133.2460000
  43.9470000  89.0000000 134.0580000  44.7490000  87.9730000 133.2860000
  39.8460000  33.5020000 139.0400000  39.9730000  34.4280000 138.8360000
  39.8120000  33.4700000 139.9970000  61.7330000  60.6860000 150.6760000
  61.2910000  60.0000000 150.1760000  61.4390000  60.5540000 151.5770000
  42.9360000  41.0620000 143.9800000  43.7600000  40.6120000 143.7930000
  42.8020000  41.6400000 143.2280000  41.9940000  49.4360000 147.2940000
  41.8740000  50.2740000 147.7400000  42.9170000  49.4290000 147.0390000
  36.5690000  81.7790000 130.9440000  36.6610000  81.7910000 131.8970000
  37.4610000  81.8930000 130.6160000  31.1320000  36.6930000 127.4620000
  31.0010000  37.5570000 127.8530000  31.0000000  36.0800000 128.1860000
  40.8470000  52.0390000 135.2300000  40.0240000  52.4690000 135.4650000
  41.3930000  52.7430000 134.8790000  57.1380000  35.2500000 161.2740000
  56.8590000  34.8440000 160.4530000  56.3830000  35.7680000 161.5540000
  36.4340000  31.5800000 154.6350000  37.1030000  31.0100000 154.2570000
  35.9110000  31.0000000 155.1900000  46.9580000  31.0000000 137.0920000
  47.6610000  31.1980000 136.4730000  47.3810000  31.0220000 137.9500000
  55.6200000  41.5510000 126.8050000  55.8910000  41.3190000 125.9170000
  55.9860000  40.8580000 127.3560000  69.3490000  37.5160000 131.9960000
  68.5930000  37.4900000 132.5830000  68.9740000  37.4480000 131.1180000
  45.5540000  38.1400000 135.0370000  44.6980000  38.5090000 134.8180000
  45.3690000  37.2320000 135.2770000  51.5130000  86.4850000 147.9550000
  50.8490000  87.0180000 147.5170000  52.0420000  87.1160000 148.4440000
  79.1010000  76.8620000 145.4880000  78.5360000  77.5140000 145.9040000
  78.5830000  76.0570000 145.4940000  34.0750000  88.7230000 129.1570000
  34.8620000  88.9860000 129.6340000  33.3500000  89.0000000 129.7190000
  48.6590000  48.3050000 163.4060000  49.0100000  47.6280000 163.9840000
  48.3430000  48.9870000 164.0000000  31.7640000  49.9470000 138.1080000
  32.3590000  50.6900000 138.0110000  31.0000000  50.3090000 138.5580000
  83.1480000  85.5690000 147.3560000  82.9510000  86.5050000 147.3340000
  83.4900000  85.4160000 148.2370000  73.6700000  60.3890000 157.0700000
  74.1570000  60.7170000 156.3140000  72.8110000  60.8060000 157.0010000
  64.8680000  78.3510000 141.4360000  65.0590000  77.5410000 141.9090000
  65.3850000  79.0200000 141.8870000  73.3390000  61.9580000 142.3520000
  73.6340000  61.8590000 143.2570000  73.1960000  61.0620000 142.0460000
  37.0500000  83.5320000 154.9470000  36.1640000  83.2130000 155.1200000
  37.3600000  83.8520000 155.7950000  85.9010000  65.8760000 158.5040000
  85.6560000  64.9570000 158.3970000  86.1970000  65.9410000 159.4120000
  40.1440000  73.9810000 137.2990000  39.5160000  73.9720000 136.5770000
  40.7830000  73.3060000 137.0690000  71.3920000  35.4680000 163.4230000
  71.4750000  36.2570000 163.9570000  71.6700000  34.7570000 164.0000000
  88.3590000  53.6680000 140.0400000  88.7180000  52.8190000 140.2970000
  89.0000000  54.0230000 139.4230000  80.4380000  88.9920000 150.2190000
  80.9640000  88.4340000 149.6470000  79.5700000  89.0000000 149.8160000
  37.9750000  42.6470000 150.0120000  37.2550000  42.1490000 149.6270000
  37.7790000  43.5590000 149.7960000  53.2790000  44.8510000 130.9160000
  52.7520000  45.2550000 131.6050000  52.9650000  45.2530000 130.1060000
  45.1780000  62.7230000 124.2430000  45.7850000  62.6010000 124.9720000
  45.6080000  62.2970000 123.5000000  40.8060000  57.5730000 139.6300000
  39.9960000  57.0690000 139.7040000  41.4920000  56.9110000 139.5320000
  47.4770000  57.9040000 141.9460000  48.2950000  57.9200000 141.4490000
  46.8170000  58.2230000 141.3310000  60.6020000  79.6720000 136.6800000
  61.3420000  80.0900000 136.2400000  60.9590000  78.8500000 137.0190000
  88.4220000  31.7320000 126.2350000  89.0000000  32.3860000 125.8430000
  89.0000000  31.0000000 126.4520000  70.9320000  58.7590000 132.6850000
  71.0980000  59.6980000 132.7620000  70.1670000  58.6960000 132.1130000
  88.9830000  60.0010000 163.4110000  89.0000000  60.7600000 163.9940000
  89.0000000  59.2460000 164.0000000  42.2640000  73.5750000 161.4880000
  42.5000000  72.6990000 161.7930000  41.4310000  73.7640000 161.9210000
  76.7450000  43.0770000 126.3150000  77.5960000  42.9400000 126.7320000
  76.1940000  42.3720000 126.6550000  34.2420000  49.5050000 143.5440000
  33.9530000  50.4160000 143.5100000  33.4770000  49.0000000 143.2680000
  79.8080000  60.3650000 146.6260000  79.3550000  61.0520000 147.1160000
  79.5440000  60.5060000 145.7170000  44.8440000  78.9660000 137.0520000
  44.5010000  78.2250000 136.5520000  45.1290000  78.5840000 137.8820000
  46.5710000  52.1100000 143.8740000  46.1130000  51.7600000 143.1100000
  47.4940000  52.1150000 143.6180000  55.3890000  75.9750000 133.6860000
  55.8810000  75.5660000 132.9730000  56.0260000  76.5430000 134.1210000
  74.2200000  31.5890000 154.1550000  74.1740000  31.0000000 153.4020000
  74.2960000  31.0070000 154.9110000  85.9700000  69.3170000 130.1340000
  86.5300000  68.9250000 130.8050000  86.5810000  69.6980000 129.5030000
  78.9870000  72.5000000 143.7730000  78.3700000  72.9540000 144.3460000
  78.8220000  72.8670000 142.9040000  36.7130000  57.3040000 157.8340000
  37.0500000  57.9260000 157.1880000  36.5100000  56.5180000 157.3260000
  57.8770000  74.7210000 126.7100000  57.5110000  74.6380000 125.8300000
  58.6600000  75.2610000 126.5950000  31.7360000  66.0150000 161.7710000
  32.4950000  66.5970000 161.7820000  31.0000000  66.5840000 161.5440000
  77.8020000  74.5160000 123.5000000  78.7520000  74.4160000 123.5580000
  77.4600000  73.6290000 123.6190000  48.1570000  41.3800000 130.3430000
  48.3740000  41.2590000 131.2670000  47.5480000  42.1190000 130.3340000
  32.1270000  71.4580000 124.7490000  32.8380000  72.0920000 124.6650000
  31.5610000  71.8210000 125.4310000  53.9290000  46.9600000 155.5900000
  53.2130000  46.3280000 155.6460000  53.7320000  47.4770000 154.8080000
  73.2380000  67.1240000 151.6470000  74.1660000  66.9510000 151.4910000
  73.0700000  67.9520000 151.1960000  62.1810000  59.7570000 162.7520000
  61.7630000  59.2860000 162.0310000  62.9020000  59.1890000 163.0240000
  46.2500000  63.5150000 153.2020000  45.5860000  63.0550000 153.7150000
  46.6560000  62.8330000 152.6680000  37.1920000  36.5200000 139.8210000
  37.6840000  35.6990000 139.8230000  36.5060000  36.3870000 139.1660000
  64.1270000  55.9070000 130.0360000  63.2360000  56.0730000 130.3450000
  64.0370000  55.8050000 129.0880000  59.3850000  75.6810000 129.7320000
  58.6610000  75.1470000 129.4060000  59.5590000  76.3050000 129.0280000
  44.9670000  55.1610000 148.6360000  45.6200000  55.4220000 147.9880000
  44.1300000  55.4250000 148.2540000  58.9240000  61.2740000 144.8160000
  58.7780000  60.4640000 145.3040000  59.8010000  61.5560000 145.0750000
  86.5910000  77.7070000 125.6850000  85.6540000  77.7510000 125.4940000
  86.9560000  77.1790000 124.9750000  49.0300000  35.0740000 133.6630000
  48.3840000  34.5910000 134.1770000  49.0200000  34.6510000 132.8040000
  70.8670000  70.5090000 155.4460000  71.8180000  70.5060000 155.5460000
  70.5930000  71.3640000 155.7800000  86.5890000  79.4920000 130.4100000
  86.8870000  80.3580000 130.1340000  85.6720000  79.6200000 130.6540000
  50.5910000  70.1190000 155.1080000  49.7610000  69.7820000 155.4440000
  50.4780000  71.0700000 155.0990000  59.4220000  52.5230000 154.5170000
  60.3660000  52.6640000 154.5900000  59.0330000  53.3540000 154.7910000
  73.2000000  70.2320000 138.1660000  73.5140000  70.6890000 138.9460000
  73.8360000  70.4550000 137.4860000  51.3470000  80.7420000 123.5000000
  50.9060000  80.0900000 124.0440000  51.2640000  81.5600000 123.9910000
  63.5170000  88.4210000 137.1030000  64.2190000  89.0000000 137.3990000
  62.7560000  88.9950000 137.0090000  35.4040000  59.3410000 150.3430000
  35.3110000  59.6330000 149.4370000  36.3180000  59.5210000 150.5610000
  72.0420000  67.6700000 163.5440000  72.7260000  67.1670000 163.9850000
  72.0320000  68.5120000 164.0000000  52.6380000  66.2000000 145.8660000
  52.4380000  65.8580000 146.7370000  52.4600000  67.1390000 145.9300000
  79.0110000  31.7360000 142.3790000  79.2820000  31.4730000 141.5000000
  78.4960000  32.5320000 142.2440000  73.8610000  58.8370000 140.9400000
  74.3440000  59.2840000 140.2450000  74.2390000  57.9580000 140.9680000
  47.5220000  31.5430000 140.8540000  47.0740000  31.0000000 141.5040000
  46.8370000  32.1170000 140.5090000  64.7240000  82.0410000 154.5600000
  65.5280000  81.9060000 154.0580000  64.3640000  81.1620000 154.6780000
  81.5720000  76.5300000 145.3040000  81.7170000  76.9170000 144.4410000
  82.2090000  75.8160000 145.3580000  78.4400000  41.0100000 151.3370000
  78.1270000  41.0690000 150.4340000  78.3140000  40.0920000 151.5750000
  85.6910000  74.6470000 134.8610000  86.1480000  73.8160000 134.9930000
  85.5860000  75.0050000 135.7430000  61.8470000  35.8970000 142.6000000
  61.0860000  35.9490000 142.0230000  61.5480000  35.3740000 143.3440000
  88.0650000  65.1660000 147.7640000  87.7460000  64.4020000 147.2840000
  88.9060000  64.8870000 148.1270000  83.9730000  54.3400000 133.4850000
  83.3700000  55.0660000 133.3240000  83.4200000  53.5590000 133.4580000
  31.1020000  84.8200000 147.1480000  31.0000000  85.1990000 146.2760000
  31.0000000  83.8770000 147.0140000  45.0710000  78.0120000 128.9120000
  44.6060000  77.1840000 129.0320000  44.3800000  78.6560000 128.7560000
  66.8840000  64.1350000 143.0140000  66.5660000  64.9390000 142.6050000
  66.0910000  63.6320000 143.2020000  68.2310000  64.6410000 140.2880000
  67.3310000  64.3180000 140.2840000  68.5890000  64.3420000 141.1250000
  37.7680000  86.1530000 132.5140000  38.5500000  86.7050000 132.5110000
  37.1070000  86.6780000 132.9680000  43.9230000  31.9160000 146.5690000
  43.6470000  31.0000000 146.5910000  43.1050000  32.4130000 146.5420000
  35.3630000  53.4980000 151.3070000  35.2400000  54.3020000 151.8120000
  36.2640000  53.2330000 151.4940000  60.8320000  62.1770000 147.3860000
  61.6550000  62.6480000 147.5090000  61.0960000  61.2710000 147.2230000
  43.1030000  33.2490000 130.0590000  42.5070000  33.9450000 130.3340000
  43.2550000  33.4170000 129.1290000  61.6600000  31.2810000 128.0200000
  60.7600000  31.0000000 127.8610000  61.5740000  32.1420000 128.4300000
  67.7860000  67.6320000 155.1660000  67.2800000  67.2130000 154.4710000
  67.9270000  68.5270000 154.8550000  40.7930000  76.4840000 161.2540000
  41.2640000  77.1730000 161.7210000  39.9590000  76.8860000 161.0090000
  76.0600000  74.7770000 125.7690000  75.4420000  75.4590000 126.0320000
  76.9050000  75.2250000 125.7230000  51.6750000  73.1600000 125.6770000
  52.5850000  73.0910000 125.9650000  51.4670000  74.0910000 125.7590000
  62.0090000  53.1920000 129.4660000  61.5080000  54.0010000 129.3650000
  62.8780000  53.4810000 129.7440000  63.7500000  37.0830000 144.6240000
  63.5600000  36.1780000 144.8730000  62.8920000  37.4690000 144.4480000
  43.9820000  70.3860000 130.5320000  43.8600000  69.4900000 130.2190000
  43.7990000  70.3390000 131.4700000  31.0000000  49.9370000 154.1580000
  31.4980000  50.4240000 154.8150000  31.0630000  49.0240000 154.4380000
  35.8540000  34.3980000 158.4710000  35.1200000  34.9940000 158.3210000
  35.4670000  33.6500000 158.9270000  70.8300000  83.3900000 163.9500000
  70.0630000  83.9610000 164.0000000  70.4680000  82.5050000 163.9080000
  57.9460000  71.0260000 140.1140000  57.5400000  70.4960000 140.8000000
  58.1420000  71.8610000 140.5400000  48.4520000  48.6770000 126.0420000
  48.9280000  49.0260000 125.2880000  48.7990000  49.1640000 126.7900000
  86.4020000  40.4570000 148.6840000  86.5940000  41.2230000 149.2240000
  85.9220000  40.8070000 147.9330000  67.7430000  75.9160000 145.8100000
  67.4950000  75.5730000 146.6690000  68.7000000  75.9020000 145.8130000
  55.7450000  41.3000000 158.7920000  56.4230000  40.6900000 158.5020000
  55.8100000  42.0370000 158.1840000  69.0920000  82.7310000 126.1430000
  68.6310000  81.8920000 126.1230000  70.0200000  82.4940000 126.1570000
  53.2680000  55.7130000 124.3790000  53.5840000  56.4230000 124.9380000
  53.2440000  56.0920000 123.5000000  46.8470000  34.0180000 142.7430000
  47.0110000  33.0990000 142.9540000  47.1750000  34.5010000 143.5020000
  48.4430000  68.7900000 163.8720000  49.3860000  68.8910000 164.0000000
  48.2970000  67.8440000 163.8970000  47.3540000  44.5980000 130.5890000
  47.2400000  45.4800000 130.9430000  46.8340000  44.5920000 129.7860000
  63.7200000  52.8630000 163.9110000  64.1580000  53.7140000 163.9070000
  62.7860000  53.0740000 163.9050000  46.3010000  68.2690000 136.5690000
  45.4520000  68.5980000 136.8670000  46.9070000  68.9940000 136.7250000
  38.0260000  43.9180000 133.5820000  37.8630000  44.4140000 132.7800000
  38.8900000  44.2120000 133.8740000  37.8570000  55.4880000 151.5380000
  38.0700000  56.4080000 151.6930000  38.6070000  55.1460000 151.0510000
  47.1050000  64.4150000 150.2780000  46.5160000  64.7240000 150.9660000
  47.9090000  64.1770000 150.7400000  60.0440000  53.9260000 137.2920000
  59.5700000  53.8450000 136.4650000  59.9290000  53.0760000 137.7180000
  42.6010000  77.4420000 127.4870000  43.3290000  77.2900000 126.8850000
  41.8570000  77.6410000 126.9170000  71.1510000  61.7290000 123.5000000
  71.1310000  60.7800000 123.6230000  71.4630000  62.0730000 124.3370000
  55.4970000  84.5330000 144.2960000  56.0280000  83.8020000 143.9800000
  55.1290000  84.9230000 143.5030000  88.1660000  42.5130000 144.3460000
  87.9530000  42.5010000 145.2780000  88.5290000  43.3870000 144.1940000
  69.7430000  64.7180000 144.7020000  69.2870000  64.0640000 144.1730000
  69.0450000  65.1820000 145.1640000  74.3740000  68.1570000 129.6540000
  74.4150000  68.9830000 130.1350000  73.6640000  68.2810000 129.0240000
  77.2740000  82.6690000 136.5780000  76.4290000  82.9790000 136.9040000
  77.6050000  83.3910000 136.0440000  45.1160000  69.1610000 123.7000000
  44.4920000  69.8840000 123.6460000  44.5990000  68.3810000 123.5000000
  64.5050000  54.9240000 155.9730000  65.0380000  55.7160000 155.9110000
  64.0060000  54.9050000 155.1560000  61.8530000  76.7250000 131.3550000
  61.8860000  77.5110000 130.8110000  62.1020000  77.0280000 132.2290000
  84.6420000  58.4690000 137.3860000  83.8500000  58.4230000 136.8510000
  84.9030000  57.5560000 137.5080000  34.3380000  85.9170000 159.3970000
  33.9960000  86.8090000 159.4510000  33.5580000  85.3640000 159.3410000
  52.5570000  71.7250000 148.3890000  52.6870000  70.9470000 147.8470000
  51.6060000  71.8090000 148.4650000  33.6420000  62.3060000 136.4160000
  33.6620000  63.1650000 136.8370000  34.4750000  61.9010000 136.6580000
  77.7590000  64.8990000 131.0090000  77.3990000  64.0210000 130.8850000
  78.7020000  64.7600000 131.1040000  74.5880000  41.5900000 151.9050000
  75.2450000  41.7600000 151.2300000  74.9760000  40.9040000 152.4500000
  78.6520000  81.4970000 155.2460000  77.7290000  81.5510000 155.0000000
  79.0940000  82.1050000 154.6520000  61.9980000  85.8790000 149.9500000
  62.3810000  86.7540000 150.0020000  61.0520000  86.0290000 149.9750000
  86.9230000  71.7980000 159.8480000  86.7980000  72.6680000 160.2260000
  86.7250000  71.9100000 158.9170000  79.2180000  70.3670000 123.5040000
  80.1570000  70.5500000 123.5000000  78.8040000  71.2300000 123.5120000
  36.4280000  48.8150000 136.4490000  36.1040000  47.9550000 136.7160000
  35.6380000  49.3320000 136.2950000  81.1170000  86.5410000 131.8690000
  80.1930000  86.3190000 131.9880000  81.1980000  86.7370000 130.9360000
  78.1160000  75.8600000 128.9880000  77.6750000  76.6940000 128.8270000
  78.0140000  75.3720000 128.1700000  62.5790000  34.8060000 123.7390000
  62.0730000  34.0300000 123.5000000  62.0000000  35.5420000 123.5370000
  33.8810000  32.2810000 153.5430000  33.1750000  32.2710000 152.8980000
  33.7280000  31.5020000 154.0790000  45.0510000  59.4040000 126.0620000
  45.3210000  60.3060000 125.8920000  45.7620000  59.0360000 126.5860000
  86.5760000  77.2720000 155.7650000  87.2730000  77.5320000 155.1630000
  86.2990000  76.4100000 155.4520000  49.9080000  79.0560000 134.4540000
  50.2920000  79.3710000 135.2710000  49.5400000  78.2000000 134.6760000
  31.0480000  47.1410000 132.3510000  31.0000000  46.5330000 131.6130000
  31.0840000  48.0080000 131.9460000  71.0650000  79.7560000 137.9920000
  71.9170000  79.7190000 138.4260000  71.1060000  79.0720000 137.3240000
  31.5530000  53.9990000 150.2210000  31.6030000  54.4930000 151.0390000
  31.0000000  53.2460000 150.4290000  80.3870000  61.9570000 138.3900000
  80.8320000  62.6170000 137.8590000  79.7250000  62.4470000 138.8780000
  51.6160000  50.5950000 140.3430000  51.3130000  49.7310000 140.0630000
  52.5310000  50.4600000 140.5900000  72.5630000  66.8500000 149.0100000
  72.3310000  67.0000000 148.0940000  73.5200000  66.8090000 149.0120000
  86.7450000  69.7720000 148.7630000  86.9130000  70.6620000 149.0730000
  87.1530000  69.7390000 147.8970000  80.8790000  54.1270000 138.8140000
  81.6140000  53.5150000 138.7980000  80.4650000  53.9830000 139.6660000
  82.1340000  84.8430000 161.3340000  81.2000000  84.8170000 161.5410000
  82.5490000  85.1590000 162.1370000  31.2620000  70.2500000 132.6950000
  31.0000000  69.8950000 131.8460000  31.0000000  69.5800000 133.3260000
  79.9180000  57.4460000 131.4890000  79.6620000  57.6920000 130.6000000
  80.8620000  57.2930000 131.4320000  43.4930000  79.3830000 153.1260000
  42.5620000  79.3550000 152.9080000  43.6960000  78.4970000 153.4260000
  43.9780000  60.1850000 144.8590000  44.1950000  61.0820000 144.6060000
  44.2350000  60.1270000 145.7800000  62.3820000  59.8040000 145.5200000
  62.6430000  59.8480000 144.6000000  63.1120000  60.1990000 145.9970000
  74.4280000  76.2920000 150.0040000  73.7860000  76.6880000 149.4150000
  74.0350000  75.4580000 150.2620000  80.9470000  48.6890000 154.8390000
  81.7460000  49.2130000 154.7970000  80.2500000  49.3260000 155.0010000
  38.1510000  59.8930000 148.8830000  37.4960000  59.6660000 148.2230000
  38.8520000  59.2530000 148.7560000  40.1320000  33.2420000 134.1030000
  40.6220000  33.1440000 133.2870000  40.5650000  33.9660000 134.5570000
  40.5650000  56.1500000 123.6920000  40.3360000  57.0790000 123.6880000
  39.7230000  55.6950000 123.7060000  31.0000000  54.7740000 143.7310000
  31.2250000  54.6850000 142.8050000  31.0300000  55.7160000 143.8970000
  82.6250000  66.2440000 124.5320000  82.3570000  66.0410000 123.6360000
  82.4150000  65.4530000 125.0300000  46.9120000  36.9160000 164.0000000
  46.2840000  36.1940000 163.9990000  47.7690000  36.4890000 163.9870000
  39.7180000  50.4950000 141.1480000  39.1290000  50.2970000 140.4190000
  39.1420000  50.8180000 141.8410000  65.5240000  57.3040000 147.5090000
  65.9620000  56.4680000 147.6730000  66.1110000  57.9600000 147.8860000
  52.8830000  87.2030000 132.4990000  52.3860000  88.0210000 132.4880000
  53.1420000  87.0680000 131.5870000  60.2500000  68.7200000 136.5630000
  61.0840000  69.0420000 136.9050000  59.5860000  69.2170000 137.0410000
  48.4440000  61.1880000 150.7220000  48.0680000  61.6040000 149.9470000
  47.6860000  60.8810000 151.2210000  33.4200000  58.8210000 129.3910000
  33.2180000  59.0780000 128.4910000  33.2140000  57.8870000 129.4260000
  53.8360000  69.3510000 123.6420000  53.9600000  70.2890000 123.5000000
  54.4900000  69.1190000 124.3010000  78.8950000  66.1520000 162.4450000
  79.1640000  66.3800000 163.3350000  79.5270000  65.4880000 162.1660000
  85.8740000  41.7920000 125.9000000  85.1970000  42.4570000 125.7770000
  86.6590000  42.1730000 125.5070000  61.2560000  31.0000000 163.0440000
  61.1720000  31.0150000 163.9970000  60.6950000  31.7140000 162.7420000
  33.4540000  55.1670000 144.1710000  33.5220000  55.7610000 143.4240000
  34.3250000  55.1810000 144.5690000  47.3080000  78.5300000 136.4220000
  47.6250000  77.6580000 136.1880000  48.1030000  79.0420000 136.5720000
  78.2580000  64.8760000 134.0870000  78.1640000  65.3510000 134.9120000
  77.7190000  65.3660000 133.4650000  73.0770000  72.1070000 131.4400000
  72.5680000  71.2990000 131.3840000  72.6350000  72.6230000 132.1140000
  80.4240000  51.7280000 155.6740000  81.3430000  51.9890000 155.6130000
  80.3090000  51.4700000 156.5890000  56.3180000  88.9950000 158.8430000
  55.7550000  88.9380000 158.0710000  57.0090000  88.3510000 158.6840000
  82.2720000  66.5440000 164.0000000  81.5330000  65.9360000 164.0000000
  83.0460000  65.9800000 163.9980000  41.7410000  60.7730000 127.6160000
  41.0750000  60.1610000 127.9290000  42.4070000  60.2160000 127.2120000
  36.1340000  59.3960000 159.7700000  36.9960000  58.9870000 159.8500000
  36.2900000  60.3220000 159.9570000  33.6730000  64.1450000 143.5700000
  33.6020000  63.5390000 144.3070000  33.7370000  63.5790000 142.8000000
  57.6560000  80.9560000 125.8050000  58.5220000  81.3620000 125.8360000
  57.8290000  80.0360000 125.6070000  73.9040000  73.0320000 125.2980000
  73.5520000  73.8830000 125.5580000  73.1530000  72.4390000 125.3350000
  36.6910000  47.5450000 147.3470000  36.5900000  48.3480000 147.8590000
  37.1340000  47.8260000 146.5460000  64.2640000  43.6520000 150.6650000
  64.7620000  44.4620000 150.5610000  64.8480000  43.0730000 151.1570000
  31.5810000  50.1590000 135.0160000  31.0150000  50.6760000 135.5890000
  31.0540000  49.3940000 134.7850000  63.1930000  42.4790000 135.2750000
  62.4810000  43.0730000 135.5120000  63.9790000  43.0260000 135.2930000
  31.0340000  51.7290000 160.1160000  31.0000000  50.7850000 159.9590000
  31.3740000  51.8120000 161.0070000  66.0810000  53.4230000 150.2760000
  65.2200000  53.0050000 150.2830000  65.8920000  54.3610000 150.2750000
  65.6190000  69.3230000 137.5360000  66.2320000  69.7450000 136.9340000
  65.2840000  68.5700000 137.0490000  31.0310000  65.4490000 156.9140000
  31.0000000  66.3930000 156.7620000  31.7140000  65.1320000 156.3230000
  67.6570000  56.1320000 150.3110000  68.0700000  55.8740000 149.4880000
  68.3850000  56.2310000 150.9250000  43.4430000  82.2210000 133.2550000
  42.7600000  82.1800000 133.9240000  43.1870000  82.9530000 132.6940000
  50.0980000  79.6320000 131.0700000  49.9970000  78.6910000 131.2150000
  51.0350000  79.7920000 131.1850000  49.9910000  55.8580000 161.4250000
  50.3840000  56.1030000 162.2630000  49.7350000  54.9420000 161.5390000
  41.4180000  71.3110000 151.4840000  41.6090000  72.1300000 151.0260000
  42.2730000  70.8950000 151.5970000  63.4490000  75.3360000 141.0690000
  63.2630000  75.0140000 140.1870000  62.6240000  75.2270000 141.5430000
  88.5170000  71.1190000 143.0810000  89.0000000  71.0020000 143.8990000
  87.9590000  70.3440000 143.0190000  59.9220000  54.0600000 142.3850000
  59.0510000  54.0570000 142.7810000  60.1480000  54.9870000 142.3070000
  45.4120000  57.0520000 135.6120000  45.9730000  56.5320000 136.1890000
  44.8790000  56.4050000 135.1500000  31.0670000  40.8830000 161.2640000
  31.0020000  41.6880000 160.7500000  31.9430000  40.9140000 161.6490000
  59.9170000  81.5190000 147.8630000  60.7460000  81.8630000 148.1950000
  60.1160000  81.2340000 146.9700000  56.6060000  82.9100000 136.9920000
  56.9160000  83.4470000 137.7210000  55.8700000  83.4020000 136.6280000
  77.8070000  39.3350000 140.2000000  77.7140000  39.9370000 140.9370000
  78.7430000  39.3470000 139.9960000  88.4890000  63.1030000 159.0140000
  89.0000000  62.3100000 158.8520000  89.0000000  63.5900000 159.6600000
  65.8080000  84.7870000 155.0420000  66.7560000  84.6530000 155.0520000
  65.6950000  85.6740000 154.7000000  52.1750000  40.1680000 155.7920000
  51.3570000  40.5120000 156.1510000  52.8300000  40.8300000 156.0130000
  85.5560000  75.9300000 157.7910000  85.6700000  74.9810000 157.8240000
  84.7910000  76.0990000 158.3420000  54.1210000  63.4590000 129.7010000
  53.2210000  63.6520000 129.4370000  54.0340000  62.7690000 130.3590000
  77.6330000  66.9270000 160.2990000  76.6950000  67.1060000 160.3580000
  77.6930000  65.9730000 160.2410000  64.8350000  31.1380000 163.6490000
  65.6990000  31.0000000 163.2620000  64.8690000  32.0280000 164.0000000
  77.5040000  33.9410000 138.1250000  76.5520000  33.8920000 138.2010000
  77.7970000  34.2660000 138.9770000  63.5300000  83.5870000 126.7620000
  64.4790000  83.4940000 126.8370000  63.2750000  82.9320000 126.1120000
  47.9270000  51.3920000 162.7240000  48.6910000  51.3610000 163.3000000
  47.1910000  51.5660000 163.3110000  62.3070000  72.8680000 150.0720000
  62.4020000  73.7040000 150.5290000  63.1860000  72.4880000 150.0820000
  51.5890000  52.6870000 127.8730000  50.7260000  52.3140000 128.0520000
  52.1770000  51.9320000 127.8540000  55.3210000  42.7430000 148.0080000
  54.5670000  42.8370000 148.5900000  55.0420000  43.1530000 147.1880000
  79.4970000  37.1330000 150.5350000  79.1670000  36.7710000 149.7130000
  79.4330000  38.0820000 150.4220000  78.5900000  44.6240000 141.0230000
  79.3770000  44.7700000 141.5480000  78.8060000  43.8730000 140.4690000
  50.9550000  34.9100000 139.8800000  51.7980000  35.2590000 140.1680000
  51.0370000  33.9620000 139.9890000  48.7030000  62.1410000 136.3450000
  49.6000000  61.8600000 136.1660000  48.2100000  61.3260000 136.4390000
  36.3020000  64.0770000 145.1310000  36.0650000  63.2740000 144.6670000
  35.8300000  64.7700000 144.6680000  37.4580000  37.4050000 157.5930000
  36.8900000  36.7290000 157.9620000  38.3350000  37.0200000 157.6160000
  39.1060000  70.0300000 149.8330000  39.1060000  70.9320000 150.1530000
  40.0320000  69.8120000 149.7280000  71.4110000  79.7700000 144.5800000
  72.3080000  79.5340000 144.8160000  71.4090000  80.7270000 144.5710000
  51.4410000  68.7910000 143.4110000  50.8080000  68.1040000 143.6170000
  51.5220000  68.7640000 142.4570000  60.7110000  74.0870000 140.1430000
  60.6240000  75.0180000 139.9420000  60.0630000  73.9290000 140.8310000
  88.9280000  88.6490000 138.4190000  88.9840000  87.7010000 138.3070000
  89.0000000  89.0000000 137.5300000  43.1580000  75.7410000 147.4620000
  44.0360000  75.3610000 147.4710000  42.5700000  74.9860000 147.4460000
  34.1560000  82.1310000 130.3880000  34.3340000  82.8990000 130.9300000
  33.2150000  81.9820000 130.4840000  82.0050000  30.9990000 141.9040000
  81.6620000  31.8510000 142.1730000  82.8450000  31.1990000 141.4880000
  89.0000000  31.3720000 132.1930000  88.9380000  32.1960000 132.6760000
  88.6950000  31.5870000 131.3110000  50.3540000  88.5950000 136.1170000
  49.4580000  88.2930000 136.2650000  50.8800000  87.7950000 136.1180000
  88.5860000  56.9090000 150.3070000  89.0000000  57.3150000 149.5450000
  89.0000000  57.3320000 151.0590000  72.7570000  50.4960000 134.4100000
  72.7830000  50.3240000 133.4690000  71.8700000  50.2530000 134.6740000
  81.6890000  80.9910000 126.1570000  81.6920000  80.1320000 125.7360000
  81.5010000  80.8060000 127.0780000  69.4660000  73.1410000 145.8490000
  69.2320000  72.3090000 145.4380000  70.2330000  72.9370000 146.3840000
  45.0780000  51.5170000 131.2660000  45.9550000  51.5750000 130.8880000
  44.6570000  52.3430000 131.0250000  79.8250000  55.7770000 128.8930000
  80.7080000  55.4590000 129.0800000  79.4340000  55.0920000 128.3490000
  79.6540000  61.2990000 136.0920000  79.5830000  60.6770000 135.3680000
  78.8390000  61.1870000 136.5840000  68.3570000  69.5380000 133.2740000
  67.7780000  68.9030000 133.6950000  69.1860000  69.0720000 133.1650000
  42.6950000  66.7060000 128.3370000  42.7680000  66.2600000 129.1800000
  41.8460000  67.1490000 128.3720000  68.0080000  83.1000000 150.2330000
  67.1700000  83.0620000 149.7720000  67.7740000  83.2930000 151.1410000
  33.4280000  53.1070000 163.8540000  33.4250000  53.2370000 162.9060000
  34.0400000  52.3850000 163.9950000  34.4550000  81.3000000 143.3870000
  33.5960000  81.1570000 143.7850000  34.3610000  82.1200000 142.9020000
  80.0940000  77.9750000 163.9830000  79.5970000  78.7930000 163.9800000
  81.0110000  78.2520000 164.0000000  45.8010000  45.4930000 133.2260000
  45.4710000  45.7390000 134.0900000  45.5860000  46.2400000 132.6660000
  78.3490000  80.0830000 128.9620000  78.7240000  79.4600000 128.3390000
  78.0000000  79.5360000 129.6660000  41.1860000  74.5750000 130.5340000
  41.7510000  75.0490000 131.1450000  41.6590000  73.7640000 130.3490000
  43.2390000  85.9890000 123.5210000  42.3380000  85.6690000 123.5000000
  43.1550000  86.9430000 123.5170000  59.5390000  36.0950000 159.3340000
  60.0740000  36.8510000 159.0930000  58.9440000  36.4260000 160.0070000
  52.1040000  81.4210000 128.8150000  52.0150000  80.4720000 128.8980000
  51.3030000  81.7720000 129.2050000  58.4560000  43.1850000 130.1530000
  58.3920000  43.9310000 130.7490000  59.2390000  43.3620000 129.6310000
  36.5630000  71.6530000 160.9140000  37.0150000  70.8100000 160.9130000
  37.2660000  72.3030000 160.9090000  65.6360000  48.2730000 151.7060000
  66.5430000  48.3100000 151.4030000  65.3460000  47.3870000 151.4870000
  36.2680000  83.8100000 128.3140000  35.7270000  84.0920000 127.5760000
  36.3080000  84.5750000 128.8880000  64.3860000  75.9790000 163.4290000
  64.5300000  76.7730000 163.9430000  64.6770000  75.2670000 164.0000000
  61.9850000  67.1240000 157.4730000  62.3890000  67.8270000 156.9640000
  62.6850000  66.8110000 158.0470000  50.3050000  35.6300000 142.4330000
  49.7590000  34.8750000 142.6510000  49.7240000  36.2140000 141.9450000
  60.5320000  67.5200000 139.0640000  61.1450000  66.8650000 139.3960000
  59.7910000  67.4840000 139.6690000  58.6960000  47.6270000 146.7780000
  58.0170000  47.8890000 147.4000000  58.5590000  46.6870000 146.6550000
  59.9660000  33.8570000 137.1250000  60.3780000  33.3840000 137.8480000
  60.5880000  34.5520000 136.9080000  56.3880000  72.9240000 131.6500000
  57.1230000  73.0360000 132.2530000  56.6610000  73.3780000 130.8520000
  54.7520000  46.4140000 137.0090000  55.5590000  46.4840000 137.5190000
  54.0540000  46.4070000 137.6640000  85.4530000  46.5650000 128.6110000
  85.7060000  47.4530000 128.3580000  86.2610000  46.1680000 128.9360000
  42.8970000  35.1200000 138.8820000  42.1750000  35.5320000 138.4080000
  42.4760000  34.4550000 139.4280000  34.5850000  46.7330000 163.9460000
  35.5080000  46.4870000 164.0000000  34.5880000  47.6900000 163.9890000
  63.2780000  31.3140000 159.7750000  62.3330000  31.1780000 159.7080000
  63.3850000  32.2650000 159.7740000  60.7060000  86.1920000 144.4140000
  60.1660000  86.2060000 145.2040000  61.5150000  85.7560000 144.6840000
  48.5720000  78.9810000 163.3450000  48.9190000  79.2050000 162.4810000
  48.1520000  79.7850000 163.6510000  41.8640000  69.7700000 161.5730000
  41.8610000  69.4950000 160.6560000  42.7870000  69.7520000 161.8260000
  46.5830000  41.5450000 154.4120000  46.2190000  40.6630000 154.4950000
  45.8610000  42.0700000 154.0670000  36.4920000  55.4430000 161.5720000
  36.9550000  56.2810000 161.5620000  35.9140000  55.4800000 160.8090000
  50.7920000  76.1560000 123.8090000  50.1810000  76.2500000 124.5390000
  50.9370000  77.0500000 123.5000000  39.3620000  70.0290000 126.2600000
  38.7450000  69.3510000 125.9830000  38.8070000  70.7440000 126.5730000
  42.0230000  88.9810000 158.9370000  42.3950000  89.0000000 158.0550000
  41.0760000  89.0000000 158.7980000  40.0850000  54.0970000 138.3020000
  40.3350000  54.6680000 139.0280000  40.7840000  54.2100000 137.6570000
  56.3550000  40.1310000 163.8790000  56.9300000  39.3680000 163.9270000
  56.9390000  40.8800000 164.0000000  86.2980000  31.5540000 159.7310000
  85.7340000  31.0000000 160.2710000  86.5330000  31.0020000 158.9850000
  70.2530000  41.2070000 160.8890000  70.2260000  41.9200000 161.5260000
  69.5110000  40.6490000 161.1200000  75.6990000  49.7820000 151.4190000
  75.2720000  50.4270000 150.8550000  75.1320000  49.0120000 151.3740000
  32.8610000  53.8560000 139.7730000  32.8060000  53.9160000 140.7270000
  31.9500000  53.8570000 139.4790000  82.6060000  77.4060000 130.5250000
  83.3710000  77.1680000 131.0480000  82.6710000  78.3560000 130.4240000
  77.3340000  35.3560000 142.1460000  77.4520000  34.7660000 141.4020000
  76.8350000  34.8440000 142.7820000  33.8570000  48.1460000 133.3830000
  33.2460000  48.8430000 133.6200000  33.4910000  47.7680000 132.5830000
  69.5070000  35.6800000 151.8500000  69.2980000  35.3560000 150.9740000
  70.4200000  35.4270000 151.9880000  67.4070000  35.1420000 148.6860000
  66.4810000  34.9150000 148.7740000  67.4620000  35.6000000 147.8470000
  40.6190000  86.9990000 129.6870000  40.0640000  86.2190000 129.6840000
  41.5130000  86.6570000 129.6910000  64.5270000  89.0000000 124.6450000
  65.4390000  88.9050000 124.9190000  64.2100000  88.1010000 124.5490000
  84.0530000  66.1990000 128.4640000  83.3620000  66.8610000 128.4370000
  84.8220000  66.6680000 128.7900000  88.0700000  68.9610000 145.3010000
  87.6120000  68.3790000 144.6960000  88.9990000  68.8170000 145.1150000
  56.6490000  40.6270000 145.8670000  56.4430000  39.9630000 145.2080000
  55.8270000  41.1000000 145.9960000  88.8880000  40.2800000 123.5000000
  88.5900000  40.7250000 124.2930000  88.5990000  39.3740000 123.6090000
  57.6930000  54.7130000 163.9960000  56.8850000  55.2240000 163.9670000
  58.0870000  54.8370000 163.1320000  62.8410000  47.5420000 125.9700000
  63.4040000  46.8350000 125.6580000  61.9630000  47.1600000 125.9890000
  78.5880000  52.9490000 130.4380000  78.1300000  53.6090000 130.9590000
  79.4000000  53.3780000 130.1690000  68.5130000  44.7800000 138.0050000
  67.5710000  44.8130000 138.1690000  68.7240000  43.8460000 138.0020000
  41.0740000  31.0230000 127.2410000  40.6400000  31.0000000 128.0930000
  40.5670000  31.6550000 126.7300000  31.8440000  64.5360000 149.1550000
  31.0000000  64.9860000 149.1890000  32.3920000  65.0940000 148.6020000
  86.6280000  80.9850000 141.8120000  85.8320000  81.4920000 141.9700000
  86.3720000  80.3330000 141.1590000  71.7840000  79.3040000 126.1440000
  71.5070000  80.2200000 126.1300000  72.7400000  79.3430000 126.1710000
  62.2230000  33.8040000 131.4300000  61.5920000  33.1520000 131.7340000
  62.4560000  33.5190000 130.5460000  71.2570000  61.8120000 128.0600000
  71.2260000  62.7670000 128.1180000  70.3390000  61.5400000 128.0920000
  34.8840000  68.8030000 146.9790000  34.7990000  68.7200000 147.9280000
  34.1500000  69.3610000 146.7200000  53.8860000  67.8350000 126.6320000
  53.1730000  67.6020000 126.0370000  54.2420000  66.9940000 126.9200000
  47.8560000  50.4250000 129.3070000  48.8110000  50.3730000 129.3530000
  47.5670000  49.5120000 129.3050000  65.5490000  68.0370000 159.2540000
  66.2930000  68.2690000 158.6980000  64.7820000  68.3390000 158.7680000
  89.0000000  49.5540000 163.9690000  88.0790000  49.2950000 164.0000000
  88.9810000  50.5110000 164.0000000  31.0000000  47.3690000 138.8730000
  31.4340000  46.5190000 138.7990000  31.0050000  47.5590000 139.8120000
  36.9790000  36.7430000 142.5060000  36.9570000  37.6210000 142.1260000
  36.9910000  36.8910000 143.4520000  33.4250000  59.5550000 139.8200000
  32.8480000  60.1050000 140.3480000  33.6490000  58.8210000 140.3930000
  88.4800000  53.0830000 163.9350000  89.0000000  53.8860000 163.9400000
  87.5730000  53.3840000 164.0000000  73.8080000  38.3640000 139.0730000
  73.5660000  37.4710000 139.3200000  74.6480000  38.2690000 138.6230000
  31.6300000  76.3730000 130.7790000  31.0000000  77.0070000 130.4380000
  31.0920000  75.7070000 131.2090000  75.2710000  54.6500000 145.2780000
  74.6080000  55.3390000 145.2280000  74.7700000  53.8340000 145.2670000
  50.2910000  78.4580000 141.9180000  49.4960000  78.6940000 141.4400000
  50.4990000  77.5730000 141.6150000  49.8320000  46.2910000 151.1670000
  50.7080000  45.9140000 151.2540000  49.9770000  47.1410000 150.7500000
  77.9880000  43.0930000 136.8980000  78.6110000  43.0510000 136.1720000
  77.7010000  44.0060000 136.9150000  57.5680000  55.8430000 150.1750000
  57.9720000  56.2710000 149.4210000  56.9920000  56.5090000 150.5500000
  70.5480000  42.1690000 125.7110000  71.4990000  42.2230000 125.7940000
  70.3320000  41.2770000 125.9840000  39.4660000  65.9140000 123.5000000
  40.1720000  66.5610000 123.5000000  38.6630000  66.4350000 123.5000000
  42.8400000  77.4360000 151.3300000  42.1210000  76.9640000 151.7510000
  42.4700000  77.7520000 150.5060000  45.2560000  73.8210000 160.1880000
  45.0220000  73.4350000 161.0330000  46.2070000  73.7220000 160.1350000
  55.1220000  58.6270000 150.2410000  55.2700000  58.5710000 149.2970000
  54.7540000  57.7750000 150.4770000  81.7590000  74.6520000 138.7730000
  81.8110000  75.3120000 138.0820000  80.8310000  74.6190000 139.0040000
  70.2920000  41.6130000 140.1280000  70.3780000  42.1260000 139.3250000
  71.0440000  41.8730000 140.6610000  60.1360000  32.9650000 160.6510000
  60.0170000  33.6490000 161.3100000  60.9500000  33.2010000 160.2050000
  86.2180000  44.7950000 131.5670000  85.5060000  45.3940000 131.7910000
  85.7960000  44.1000000 131.0610000  58.8100000  82.7320000 152.2410000
  58.8340000  81.8890000 152.6940000  59.7170000  83.0390000 152.2580000
  66.4210000  33.8430000 145.6580000  66.4620000  33.2940000 146.4410000
  65.8030000  34.5380000 145.8840000  64.7220000  50.3420000 137.9760000
  64.0360000  50.9520000 138.2460000  65.2030000  50.8100000 137.2930000
  67.4100000  86.4230000 142.2470000  66.9200000  86.0290000 142.9680000
  66.8180000  87.0840000 141.8870000  82.1320000  50.8190000 150.0330000
  82.7960000  50.2240000 150.3810000  81.3790000  50.2570000 149.8500000
  88.7960000  56.8360000 124.5730000  89.0000000  56.0170000 125.0240000
  88.6930000  56.5850000 123.6550000  74.3530000  86.8980000 162.9070000
  73.8440000  87.3330000 163.5920000  74.3850000  87.5340000 162.1920000
  88.8810000  50.8520000 147.9810000  89.0000000  50.1150000 148.5790000
  88.9320000  51.6270000 148.5410000  85.0920000  35.9560000 129.4960000
  85.4440000  36.7260000 129.0510000  85.4560000  36.0030000 130.3810000
  78.2290000  76.9080000 162.5490000  78.9280000  76.2800000 162.3640000
  77.9700000  76.7200000 163.4510000  40.6080000  43.6350000 163.6470000
  40.6790000  44.5290000 163.9810000  41.3770000  43.1850000 164.0000000
  58.0410000  81.2770000 156.1200000  58.5260000  81.3090000 155.2950000
  57.1550000  81.5540000 155.8870000  62.7690000  72.8660000 161.0290000
  63.4840000  73.1520000 161.5980000  61.9750000  73.0580000 161.5280000
  43.5170000  31.0000000 160.2560000  42.9590000  31.2590000 159.5230000
  43.9610000  31.8070000 160.5170000  71.0840000  40.0480000 155.9950000
  71.7310000  40.7300000 155.8130000  71.6030000  39.2560000 156.1380000
  40.7220000  82.5050000 157.8270000  41.4770000  82.9090000 158.2550000
  41.0940000  82.0360000 157.0790000  35.5750000  71.1090000 138.2590000
  34.9220000  70.4740000 137.9650000  35.6940000  70.9180000 139.1890000
  86.5890000  48.8150000 136.1940000  87.5120000  48.8150000 135.9410000
  86.3920000  49.7320000 136.3850000  83.3950000  88.8020000 150.0980000
  83.6390000  87.8770000 150.1370000  83.3500000  89.0000000 149.1630000
  73.9510000  41.8980000 133.1350000  73.8840000  41.6670000 134.0610000
  74.6830000  41.3740000 132.8100000  76.0520000  53.8710000 123.5190000
  75.6660000  54.7470000 123.5210000  75.3000000  53.2780000 123.5000000
  69.0560000  86.5450000 137.1160000  69.5190000  85.7080000 137.1080000
  69.7510000  87.2030000 137.1440000  69.1200000  88.0400000 123.5450000
  68.7520000  87.2390000 123.9170000  68.3880000  88.6580000 123.5380000
  73.2220000  76.7180000 133.6460000  74.0040000  76.5340000 133.1250000
  72.7660000  75.8780000 133.6980000  84.2680000  31.8570000 123.5000000
  83.4390000  32.3220000 123.6160000  84.1200000  31.0000000 123.9010000
  31.8670000  34.1740000 129.9880000  32.4690000  33.5220000 130.3440000
  31.0000000  33.7790000 130.0850000  63.1870000  73.5810000 135.9580000
  63.8970000  74.2220000 135.9310000  63.0240000  73.4420000 136.8910000
  87.5570000  63.3380000 137.8670000  86.9280000  63.6710000 137.2270000
  88.3800000  63.7730000 137.6420000  62.8740000  72.7660000 164.0000000
  62.0010000  72.3780000 163.9330000  62.7250000  73.7080000 163.9140000
  61.5630000  55.4350000 125.0950000  62.4580000  55.7640000 125.0030000
  61.0150000  56.2190000 125.0500000  32.3290000  69.5450000 150.9830000
  31.4720000  69.3950000 151.3820000  32.4900000  68.7600000 150.4580000
  31.0240000  42.7060000 163.1310000  31.0460000  43.1050000 164.0000000
  31.0000000  43.4480000 162.5260000  41.5890000  61.0650000 146.1890000
  40.8570000  61.3600000 145.6470000  41.9520000  61.8700000 146.5600000
  48.8570000  73.7970000 139.5370000  48.9950000  72.8500000 139.5420000
  47.9140000  73.9020000 139.4130000  79.5830000  63.0890000 150.5080000
  78.6330000  63.1100000 150.3960000  79.8930000  62.5130000 149.8090000
  37.7580000  80.8320000 123.5030000  38.3220000  81.6050000 123.5150000
  36.8680000  81.1840000 123.5000000  33.9660000  68.8760000 128.5680000
  34.8320000  69.1230000 128.2440000  34.1180000  68.0780000 129.0750000
  78.7330000  46.4980000 123.5130000  79.2850000  45.7160000 123.5390000
  79.3530000  47.2280000 123.5000000  58.1930000  34.5320000 132.1060000
  59.0130000  34.0620000 131.9630000  58.3320000  35.3870000 131.6980000
  82.8110000  59.7880000 124.0310000  83.5710000  59.5500000 123.5000000
  82.3390000  60.4300000 123.5000000  53.6890000  50.2480000 135.7890000
  54.4880000  50.4330000 136.2810000  53.5000000  49.3280000 135.9740000
  58.0070000  44.5740000 140.3180000  58.3140000  44.2730000 141.1730000
  57.0810000  44.7740000 140.4520000  84.7450000  60.7960000 152.4610000
  85.5940000  60.3840000 152.6190000  84.8360000  61.2140000 151.6050000
  37.7120000  70.1180000 129.2600000  37.2390000  70.1560000 128.4290000
  38.6120000  70.3530000 129.0350000  53.4530000  49.5340000 143.1230000
  54.0230000  49.4710000 142.3570000  53.8720000  48.9780000 143.7800000
  88.1320000  67.4790000 128.4200000  88.6590000  66.8260000 128.8810000
  87.2350000  67.3150000 128.7140000  49.2040000  39.9550000 145.3510000
  50.0290000  40.4160000 145.5050000  48.8860000  39.7340000 146.2270000
  67.1060000  77.2970000 127.3230000  66.5920000  77.4630000 126.5340000
  67.0350000  76.3520000 127.4610000  35.9970000  50.2440000 150.3110000
  36.2170000  49.3370000 150.5210000  36.3790000  50.7550000 151.0250000
  59.5400000  65.1460000 133.8670000  59.7850000  64.2900000 133.5180000
  59.6270000  65.0520000 134.8160000  86.0110000  80.3010000 157.0880000
  85.1460000  80.6690000 156.9070000  85.8310000  79.4680000 157.5250000
  80.4160000  78.6490000 147.7990000  79.7320000  79.3060000 147.9250000
  81.1870000  79.1530000 147.5350000  37.6360000  52.6180000 148.3460000
  37.1900000  52.2610000 149.1140000  37.6720000  51.8870000 147.7280000
  43.9250000  42.4760000 134.5130000  44.7650000  42.0530000 134.3350000
  44.1030000  43.4120000 134.4180000  47.1410000  36.9910000 142.1420000
  47.4430000  37.6830000 141.5540000  46.3440000  36.6560000 141.7310000
  53.3390000  73.4560000 123.5300000  52.6780000  74.1480000 123.5250000
  52.8350000  72.6420000 123.5000000  47.4030000  78.5060000 126.1940000
  47.7090000  77.6650000 125.8540000  48.1950000  79.0410000 126.2570000
  73.6340000  53.1670000 137.3550000  74.0820000  52.8260000 136.5810000
  74.3050000  53.1700000 138.0380000  34.9740000  84.8580000 132.3450000
  35.6530000  85.0520000 131.6990000  35.4470000  84.7860000 133.1750000
  36.4660000  77.4690000 154.6160000  35.7430000  77.3350000 155.2290000
  36.1100000  78.0610000 153.9520000  70.4070000  64.3130000 136.7300000
  70.1200000  64.0900000 135.8450000  70.3550000  65.2690000 136.7660000
  62.7070000  68.0720000 135.0060000  62.5940000  67.3960000 135.6730000
  63.3550000  68.6710000 135.3790000  88.1910000  88.9990000 130.6260000
  89.0000000  88.9510000 130.1170000  87.4940000  89.0000000 129.9690000
  76.1870000  89.0000000 156.8180000  76.9530000  88.9380000 157.3890000
  76.5460000  88.9730000 155.9310000  42.4880000  56.6740000 133.8440000
  41.8940000  56.2490000 134.4610000  41.9750000  57.3930000 133.4730000
  62.0950000  36.9870000 156.9270000  61.5320000  37.6930000 157.2450000
  62.5210000  37.3520000 156.1500000  68.4150000  34.8360000 159.1390000
  69.1590000  35.4130000 158.9730000  67.6490000  35.4070000 159.0730000
  50.8230000  69.5090000 123.5000000  50.6800000  70.4530000 123.5720000
  49.9440000  69.1300000 123.5270000  34.3000000  49.8700000 158.5620000
  34.9290000  49.6290000 159.2420000  33.6600000  50.4210000 159.0120000
  59.8550000  77.4430000 150.5480000  60.5210000  77.3510000 149.8660000
  59.0240000  77.4530000 150.0710000  37.8500000  72.3740000 157.7720000
  38.5080000  71.7430000 157.4800000  37.8620000  73.0590000 157.1040000
  75.7090000  38.7560000 128.4990000  74.8020000  39.0460000 128.4040000
  75.7750000  38.4670000 129.4090000  48.2960000  50.6960000 141.5190000
  48.4880000  50.2000000 142.3140000  49.1500000  50.8320000 141.1080000
  75.4690000  83.3650000 127.4770000  76.2750000  83.7440000 127.1270000
  75.7580000  82.5910000 127.9610000  60.8750000  73.5650000 159.1820000
  60.1810000  73.3830000 159.8170000  61.0950000  72.7080000 158.8160000
  47.2360000  52.0080000 156.5510000  46.9380000  51.9010000 157.4540000
  47.2200000  51.1230000 156.1860000  62.5770000  77.7180000 140.0370000
  62.6760000  78.6410000 140.2690000  61.6350000  77.6030000 139.9080000
  69.7330000  70.8240000 128.0040000  69.1140000  70.6220000 128.7050000
  69.3530000  71.5820000 127.5580000  50.6920000  83.4890000 140.6140000
  50.0690000  84.1890000 140.4210000  50.5520000  83.2920000 141.5410000
  57.4390000  67.8600000 160.1770000  57.7200000  68.7750000 160.1850000
  57.5060000  67.5810000 161.0910000  65.7810000  80.4020000 147.3870000
  65.8950000  79.5450000 146.9750000  65.3590000  80.2100000 148.2250000
  84.0710000  52.5480000 144.8980000  83.4190000  52.6850000 145.5850000
  84.7180000  51.9650000 145.2950000  64.7510000  85.0750000 149.7660000
  65.0060000  84.7350000 148.9090000  64.7430000  84.3070000 150.3370000
  84.7870000  84.8140000 160.8850000  85.5740000  84.7730000 161.4280000
  84.8590000  85.6490000 160.4220000  75.4410000  73.5730000 158.7010000
  76.3950000  73.6460000 158.7320000  75.2430000  72.7880000 159.2120000
  78.2510000  58.2760000 141.7020000  77.3580000  58.6220000 141.6970000
  78.8100000  59.0530000 141.6820000  54.7100000  39.1820000 155.9740000
  55.0790000  39.8230000 156.5800000  54.2240000  38.5750000 156.5330000
  70.5230000  88.8310000 156.6830000  69.6630000  88.9990000 156.2990000
  70.3710000  88.1250000 157.3120000  67.5020000  37.8360000 160.4650000
  66.7630000  37.5900000 159.9090000  68.2750000  37.6730000 159.9240000
  75.0380000  80.0280000 128.0460000  75.8740000  79.6810000 128.3570000
  74.4710000  79.2590000 127.9730000  51.6810000  83.5070000 159.1240000
  52.1680000  84.3300000 159.1760000  50.7620000  83.7740000 159.0980000
  84.3420000  77.9740000 137.7140000  83.6260000  77.5450000 138.1830000
  84.8420000  77.2540000 137.3280000  82.2110000  34.0280000 163.9780000
  81.2670000  34.1850000 163.9890000  82.6010000  34.9030000 164.0000000
  51.6540000  42.1070000 139.6310000  51.2890000  42.5480000 140.3980000
  52.3170000  42.7130000 139.2990000  75.7630000  71.6070000 147.4270000
  75.8940000  70.6690000 147.5660000  75.8190000  71.9890000 148.3030000
  74.0020000  71.3120000 154.5490000  73.5870000  72.1720000 154.4820000
  74.5500000  71.3710000 155.3320000  33.4870000  51.4770000 145.7260000
  32.9660000  51.6630000 146.5070000  33.6560000  52.3370000 145.3400000
  39.3540000  52.9280000 150.1730000  39.5070000  51.9970000 150.0140000
  40.0890000  53.3690000 149.7460000  76.3150000  72.5160000 127.2260000
  75.6550000  72.0060000 126.7580000  75.8140000  73.0420000 127.8510000
  78.4280000  49.0500000 153.1930000  77.7770000  48.9160000 152.5040000
  79.2030000  49.3710000 152.7310000  31.0300000  88.9380000 142.7880000
  31.9610000  89.0000000 142.5750000  31.0000000  88.9740000 143.7450000
  71.5000000  60.1870000 139.7020000  72.3420000  60.6250000 139.5790000
  71.2700000  60.3600000 140.6150000  39.1460000  52.0090000 152.5130000
  39.3530000  52.8770000 152.8590000  38.1890000  51.9840000 152.4870000
  38.5990000  83.5010000 160.0420000  38.1510000  82.9410000 160.6760000
  38.1110000  83.3790000 159.2270000  86.5430000  71.6400000 140.2510000
  86.1410000  71.9300000 139.4320000  86.5170000  70.6840000 140.2050000
  88.2890000  67.5880000 133.6920000  88.8980000  67.0090000 134.1500000
  88.8480000  68.1270000 133.1300000  56.8710000  52.3550000 154.0180000
  56.3970000  53.1790000 154.1290000  56.1850000  51.6910000 153.9490000
  36.6790000  67.3790000 142.8820000  36.5540000  68.2110000 142.4260000
  36.5570000  67.5920000 143.8080000  43.2430000  54.2630000 129.7790000
  43.6180000  53.8630000 128.9940000  43.2870000  55.2050000 129.6120000
  64.5190000  88.5020000 160.3970000  64.0660000  88.7400000 159.5880000
  65.3360000  89.0000000 160.3700000  60.5200000  44.1120000 158.3330000
  60.8200000  44.4040000 157.4720000  60.7640000  43.1870000 158.3710000
  60.4920000  72.6220000 152.4360000  59.8870000  71.8890000 152.3260000
  61.3590000  72.2390000 152.2980000  66.0030000  80.0080000 138.9700000
  65.9580000  79.3570000 138.2700000  66.4480000  79.5580000 139.6890000
  33.6110000  54.0910000 160.4200000  33.8180000  54.4830000 159.5720000
  33.2790000  53.2180000 160.2070000  65.2820000  41.7970000 146.5780000
  65.1960000  40.9550000 147.0240000  64.5770000  42.3340000 146.9410000
  33.0840000  73.2920000 142.6400000  33.9020000  73.2260000 143.1320000
  32.8060000  74.2010000 142.7570000  34.7280000  67.7670000 161.1880000
  35.5950000  67.9930000 161.5250000  34.8940000  67.0850000 160.5360000
  57.2860000  66.2520000 144.3280000  56.7750000  66.9220000 143.8750000
  57.8420000  66.7430000 144.9340000  78.1810000  36.7080000 162.3160000
  78.7450000  36.0890000 161.8530000  78.1820000  37.4910000 161.7650000
  85.5460000  46.9540000 151.1080000  85.2580000  46.9710000 150.1950000
  85.8670000  46.0610000 151.2410000  31.1300000  31.0050000 160.7800000
  31.0010000  31.8470000 161.2150000  32.0530000  31.0060000 160.5230000
  81.5560000  36.7130000 133.8110000  80.6500000  36.5880000 134.0920000
  82.0330000  35.9850000 134.2100000  55.6510000  40.4720000 139.5960000
  55.4220000  39.9690000 140.3770000  55.6780000  41.3810000 139.8960000
  33.7160000  78.3120000 137.2200000  34.6330000  78.0360000 137.2310000
  33.3390000  77.8620000 136.4640000  75.2270000  51.3590000 139.4960000
  75.1870000  50.4170000 139.3370000  76.1530000  51.5340000 139.6680000
  73.7610000  74.0520000 143.8790000  74.3130000  73.2700000 143.8660000
  72.8660000  73.7130000 143.8530000  64.8520000  80.9400000 161.3020000
  65.3370000  81.3890000 160.6100000  64.1290000  81.5310000 161.5120000
  61.1350000  81.5150000 163.0720000  61.3830000  81.4400000 163.9940000
  61.8720000  81.1320000 162.5940000  68.1070000  50.9210000 123.6270000
  69.0620000  50.9770000 123.6570000  67.8180000  51.8250000 123.5000000
  66.2410000  76.0160000 158.1120000  67.1040000  75.8530000 157.7330000
  66.4190000  76.5160000 158.9090000  46.6590000  71.0440000 127.1160000
  45.8330000  71.3710000 126.7590000  46.4020000  70.5300000 127.8820000
  88.6790000  89.0010000 123.5000000  88.9640000  88.8620000 124.4030000
  87.7230000  88.9730000 123.5440000  34.1420000  31.0700000 138.8460000
  33.6840000  31.0000000 139.6830000  35.0710000  31.0290000 139.0760000
  77.8300000  46.9740000 137.0760000  77.1800000  47.5440000 136.6640000
  77.4960000  46.8300000 137.9620000  39.9100000  33.3750000 128.4210000
  40.8380000  33.6000000 128.4760000  39.4560000  34.2170000 128.4610000
  51.7470000  36.7250000 127.8680000  51.9540000  37.4420000 127.2680000
  52.4740000  36.7170000 128.4910000  59.7600000  58.5410000 126.1950000
  60.6440000  58.3510000 126.5070000  59.3260000  57.6880000 126.1650000
  41.9010000  51.0620000 123.8140000  42.5210000  50.4030000 123.5000000
  42.4200000  51.8630000 123.8870000  74.9070000  42.3550000 155.8690000
  74.8910000  42.9980000 155.1600000  73.9930000  42.0940000 155.9770000
  32.1850000  80.2840000 125.9050000  31.2600000  80.1550000 125.6940000
  32.3910000  79.5800000 126.5200000  69.6390000  85.0700000 146.1220000
  69.9890000  84.7920000 146.9670000  68.7990000  85.4790000 146.3330000
  79.4250000  51.3590000 137.8470000  79.7910000  51.1750000 138.7120000
  80.0950000  51.8850000 137.4100000  62.3040000  86.3760000 128.4200000
  62.4510000  86.4250000 129.3640000  62.1990000  85.4410000 128.2420000
  67.6280000  31.0000000 131.6940000  66.8410000  31.0830000 132.2320000
  67.8630000  31.9010000 131.4720000  36.0770000  65.0140000 141.4960000
  35.7080000  64.1730000 141.2290000  36.5820000  64.8150000 142.2850000
  61.1820000  50.4350000 152.0480000  60.5510000  50.6490000 151.3610000
  60.6520000  50.0620000 152.7530000  43.3920000  47.8910000 124.0270000
  44.2220000  48.3610000 124.0980000  43.5980000  47.1190000 123.5000000
  85.7490000  58.3360000 132.2500000  85.0020000  58.7530000 132.6780000
  85.5710000  58.4270000 131.3130000  67.0380000  58.5880000 126.6000000
  67.9330000  58.9080000 126.4860000  66.7840000  58.2710000 125.7330000
  88.9850000  80.7830000 144.8080000  88.0550000  80.5760000 144.7200000
  89.0000000  81.6440000 145.2270000  55.3580000  75.9710000 153.8210000
  54.5950000  76.5440000 153.7500000  54.9910000  75.0910000 153.9070000
  45.2630000  47.7130000 129.7670000  46.0200000  47.3420000 129.3150000
  44.9830000  47.0230000 130.3700000  85.8370000  49.6200000 133.9500000
  85.0200000  49.7070000 133.4590000  86.3620000  50.3720000 133.6760000
  85.7880000  46.5950000 144.1690000  85.8610000  47.2660000 143.4900000
  86.4070000  45.9150000 143.9030000  85.2450000  71.9140000 136.3420000
  84.5490000  72.5600000 136.4610000  84.8130000  71.0700000 136.4740000
  47.9860000  80.0590000 133.2080000  47.6300000  79.9570000 132.3260000
  47.4340000  80.7280000 133.6140000  64.6950000  64.0650000 124.8530000
  63.8180000  64.4290000 124.9650000  64.6720000  63.6410000 123.9940000
  52.1400000  77.6140000 136.2390000  51.4360000  76.9720000 136.1500000
  52.3800000  77.8350000 135.3390000  36.4040000  80.5870000 134.2760000
  36.8070000  80.4060000 135.1250000  36.8830000  80.0330000 133.6600000
  74.4560000  36.1510000 128.8220000  74.2070000  36.0650000 127.9030000
  73.8890000  36.8450000 129.1610000  75.5570000  33.4410000 140.4500000
  74.7330000  33.4590000 139.9650000  75.2940000  33.3740000 141.3680000
  47.7160000  34.7310000 140.0620000  48.3440000  34.1100000 140.4310000
  48.2540000  35.4580000 139.7490000  33.8600000  60.6080000 158.1310000
  33.3290000  60.5710000 157.3360000  34.3360000  61.4360000 158.0630000
  86.5120000  40.0330000 145.3650000  86.1050000  39.1830000 145.1960000
  86.9370000  40.2650000 144.5390000  68.8020000  89.0000000 163.8920000
  69.7500000  88.8990000 163.9800000  68.6260000  88.8120000 162.9690000
  76.2540000  80.7380000 157.2110000  77.1320000  80.9320000 157.5410000
  75.6640000  81.1190000 157.8620000  42.1710000  78.2400000 129.8510000
  41.8290000  78.6990000 130.6170000  42.1040000  77.3120000 130.0780000
  82.0350000  36.9080000 127.6210000  81.9540000  37.8360000 127.4020000
  82.8830000  36.8380000 128.0600000  48.5220000  59.0880000 138.5160000
  49.1890000  59.6620000 138.1410000  48.1960000  59.5650000 139.2790000
  62.2940000  53.0580000 125.3460000  62.6620000  52.1770000 125.2750000
  61.4720000  52.9370000 125.8220000  70.8790000  72.0610000 148.6350000
  71.3010000  72.6220000 149.2860000  70.2800000  71.5130000 149.1430000
  67.3880000  37.2900000 141.6090000  66.6210000  37.8160000 141.8350000
  67.0450000  36.4050000 141.4840000  32.9930000  35.4780000 151.6980000
  32.0580000  35.5910000 151.5300000  33.0490000  34.6710000 152.2100000
  44.6730000  81.6570000 151.8780000  45.2180000  82.4430000 151.8400000
  45.2980000  80.9320000 151.8910000  56.1840000  34.0190000 124.9950000
  56.6790000  33.7040000 125.7500000  55.6710000  34.7540000 125.3330000
  49.3650000  82.6850000 132.8740000  49.9670000  83.3730000 133.1560000
  49.9310000  81.9410000 132.6670000  71.4670000  64.7340000 123.5200000
  71.1820000  65.6470000 123.5000000  71.6600000  64.5630000 124.4420000
  66.9250000  72.6180000 150.6560000  67.8620000  72.4550000 150.5540000
  66.5030000  71.8810000 150.2140000  55.6520000  62.6910000 160.8050000
  55.5500000  61.9430000 160.2160000  56.3250000  63.2320000 160.3920000
  70.1060000  54.1750000 162.1850000  70.3700000  54.2390000 163.1030000
  69.7530000  55.0400000 161.9770000  61.2990000  49.8550000 130.0360000
  61.2490000  50.8030000 129.9190000  60.3880000  49.5610000 130.0100000
  66.2840000  82.6540000 143.9480000  66.3800000  82.0260000 144.6630000
  67.0580000  83.2140000 144.0140000  71.2440000  49.1940000 164.0000000
  71.4190000  48.2550000 163.9370000  71.0740000  49.4670000 163.0980000
  36.7240000  40.8640000 159.0510000  37.0280000  39.9850000 159.2790000
  35.8690000  40.9390000 159.4750000  80.1310000  79.7760000 144.2640000
  80.0870000  78.9050000 143.8680000  79.8920000  79.6350000 145.1810000
  37.8600000  45.6980000 159.3050000  38.0760000  45.5870000 158.3800000
  38.6490000  46.0790000 159.6920000  37.7690000  71.3920000 164.0000000
  36.8190000  71.4460000 163.9020000  38.0760000  71.0380000 163.1650000
  65.9790000  85.7200000 157.8830000  66.4450000  86.0390000 157.1100000
  66.6460000  85.6890000 158.5690000  74.8030000  82.7220000 141.3170000
  75.3400000  81.9440000 141.1680000  74.4050000  82.9050000 140.4650000
  61.9010000  50.1640000 148.1550000  62.5690000  50.1430000 148.8400000
  61.9090000  49.2810000 147.7850000  33.9980000  87.2460000 131.9740000
  33.2280000  87.8120000 131.9150000  34.1440000  86.9460000 131.0760000
  31.5840000  86.3460000 149.3730000  31.0000000  85.6990000 149.7680000
  31.0000000  86.9430000 148.9040000  83.4720000  62.2560000 133.0770000
  83.4780000  62.4320000 132.1360000  83.6400000  61.3160000 133.1460000
  80.3520000  49.4420000 128.4670000  80.7560000  48.6740000 128.0650000
  80.4920000  49.3230000 129.4070000  53.0590000  58.7930000 133.8160000
  53.9160000  58.4490000 134.0670000  53.2120000  59.7240000 133.6510000
  87.7300000  83.5510000 125.7890000  87.0730000  84.2460000 125.7540000
  87.2220000  82.7420000 125.8570000  46.4680000  87.7140000 141.3550000
  45.5560000  87.4570000 141.2190000  46.4150000  88.5810000 141.7590000
  55.7840000  58.7320000 136.5200000  55.8700000  58.9040000 135.5820000
  56.6850000  58.6380000 136.8300000  36.1400000  76.7320000 148.8060000
  35.5250000  76.3650000 148.1710000  36.6580000  75.9810000 149.0990000
  56.0670000  81.0060000 131.6140000  56.0250000  80.4190000 130.8590000
  57.0010000  81.1860000 131.7260000  40.0700000  89.0000000 131.2740000
  39.3500000  88.9350000 130.6470000  39.6450000  88.9630000 132.1320000
  51.3370000  52.5280000 136.4860000  51.0640000  51.8220000 135.9000000
  50.7170000  52.4890000 137.2140000  54.7480000  61.0460000 136.3930000
  54.1100000  60.7980000 135.7250000  54.3170000  60.8450000 137.2240000
  63.6550000  34.2050000 133.6830000  64.4960000  33.9420000 134.0550000
  63.8210000  35.0650000 133.2970000  74.8820000  57.2450000 125.3160000
  74.1020000  56.7020000 125.4290000  75.6060000  56.6840000 125.5940000
  41.7980000  68.2750000 157.1140000  41.8110000  67.3600000 156.8330000
  42.2410000  68.2720000 157.9630000  51.5770000  71.9770000 151.4090000
  51.0620000  72.5670000 150.8600000  52.4370000  71.9480000 150.9890000
  79.6300000  65.1880000 126.1330000  78.7380000  65.5250000 126.2080000
  79.9270000  65.4830000 125.2720000  73.8220000  59.1570000 126.9570000
  74.6740000  59.2180000 127.3880000  73.5910000  60.0630000 126.7510000
  71.4640000  33.3620000 139.7980000  71.1100000  33.7000000 138.9760000
  72.3120000  32.9860000 139.5580000  56.0970000  75.7920000 140.5540000
  55.3490000  75.2460000 140.7970000  56.7770000  75.1670000 140.3010000
  71.8190000  33.0960000 132.6460000  71.7750000  32.3230000 133.2090000
  71.0300000  33.5950000 132.8610000  44.7760000  82.7600000 155.0380000
  43.9820000  82.4390000 154.6110000  45.2400000  81.9670000 155.3080000
  45.8560000  49.3260000 155.1090000  45.9770000  48.4380000 154.7740000
  45.1480000  49.6890000 154.5760000  70.1160000  64.8920000 160.3420000
  70.6950000  65.0140000 159.5900000  69.8140000  65.7750000 160.5580000
  69.7060000  41.0390000 158.2940000  70.6360000  41.2210000 158.1650000
  69.6630000  40.0920000 158.4300000  73.7460000  63.6890000 138.0880000
  74.0950000  64.5690000 137.9510000  74.5210000  63.1390000 138.2050000
  65.6730000  84.9960000 134.1770000  64.9540000  84.3650000 134.2150000
  65.2420000  85.8480000 134.1120000  57.9010000  74.1060000 147.1090000
  58.7500000  74.0630000 146.6700000  57.3650000  73.4510000 146.6600000
  77.2870000  45.6020000 126.7760000  77.9940000  45.3480000 126.1840000
  77.6780000  46.2630000 127.3480000  67.8740000  77.2870000 163.7410000
  67.8920000  76.5230000 163.1660000  66.9560000  77.3720000 164.0000000
  33.6150000  60.1360000 131.8150000  34.0800000  59.3010000 131.7540000
  33.3530000  60.1970000 132.7340000  77.1090000  84.0860000 153.6150000
  77.9050000  84.2510000 154.1190000  76.3960000  84.2080000 154.2430000
  55.0310000  82.1250000 128.0140000  55.0140000  82.3020000 128.9540000
  55.3600000  82.9340000 127.6230000  84.9360000  73.4260000 132.5520000
  84.3890000  73.2590000 131.7850000  84.4490000  73.0430000 133.2820000
  33.4050000  52.9830000 129.7090000  33.7830000  52.1790000 129.3520000
  33.4490000  52.8680000 130.6580000  57.5410000  62.5810000 126.5930000
  57.9550000  63.3380000 126.1800000  57.4490000  62.8290000 127.5130000
  58.1430000  75.4820000 155.4280000  57.1930000  75.5930000 155.4780000
  58.4000000  75.9680000 154.6440000  68.9260000  85.5430000 128.6180000
  69.3940000  86.1260000 129.2150000  68.2570000  86.0970000 128.2150000
  73.2320000  85.1760000 141.3700000  73.4830000  85.5900000 142.1960000
  72.8230000  85.8780000 140.8640000  73.3550000  79.6780000 141.8180000
  73.3320000  80.2850000 141.0780000  73.7190000  80.1920000 142.5390000
  39.8090000  72.9550000 127.8840000  38.8650000  72.8180000 127.9670000
  39.9080000  73.9050000 127.8160000  85.4270000  69.0390000 151.2670000
  85.1560000  69.7540000 150.6920000  85.7310000  68.3530000 150.6710000
  45.5320000  68.6080000 160.1690000  44.7120000  68.6640000 160.6590000
  45.4280000  67.8330000 159.6150000  62.4220000  65.6670000 127.3300000
  62.2960000  66.5880000 127.5580000  63.3680000  65.5330000 127.3910000
  52.6950000  58.3820000 126.2110000  53.4060000  59.0220000 126.2440000
  52.0980000  58.6510000 126.9100000  58.9310000  33.0160000 154.2470000
  58.7530000  33.1660000 155.1750000  58.5270000  32.1680000 154.0590000
  69.1770000  68.4030000 130.6210000  69.6080000  67.7060000 131.1150000
  69.8430000  69.0870000 130.5420000  85.1270000  52.3890000 132.0390000
  86.0710000  52.3630000 132.1920000  84.9090000  51.5090000 131.7300000
  63.7070000  86.0510000 142.8170000  64.0510000  86.9040000 142.5540000
  64.4680000  85.5810000 143.1590000  83.1750000  64.4470000 154.8240000
  83.9900000  64.0910000 155.1780000  83.4190000  65.3050000 154.4770000
  85.8950000  47.7790000 138.3610000  85.3460000  48.5580000 138.4430000
  85.2800000  47.0720000 138.1640000  60.1410000  50.0840000 137.2160000
  59.8540000  50.2240000 138.1170000  59.6470000  50.7240000 136.7040000
  31.0010000  58.9220000 131.1350000  31.0070000  58.0490000 131.5290000
  31.0000000  58.7590000 130.1920000  80.5970000  76.4030000 127.3850000
  79.8230000  76.9570000 127.4880000  81.0120000  76.4070000 128.2490000
  80.8850000  83.1970000 136.8830000  80.0230000  83.4220000 137.2330000
  80.7390000  82.3940000 136.3820000  89.0000000  40.0640000 127.1620000
  89.0000000  39.4670000 126.4140000  88.8410000  39.5010000 127.9200000
  40.0630000  77.5650000 128.6570000  39.6000000  78.4000000 128.5890000
  39.5090000  76.9450000 128.1820000  58.9110000  86.6250000 147.3290000
  58.3500000  87.2330000 146.8480000  58.3810000  86.3510000 148.0780000
  60.3290000  78.3970000 124.3750000  60.0580000  79.1250000 124.9330000
  59.9380000  78.5900000 123.5220000  44.5570000  78.5460000 148.1590000
  43.8530000  77.9510000 148.4170000  44.1700000  79.0920000 147.4740000
  58.3480000  82.2250000 145.5070000  58.9750000  82.7670000 145.0270000
  58.0670000  81.5650000 144.8730000  46.9190000  57.8350000 149.7280000
  47.3790000  58.6710000 149.7950000  47.3310000  57.3930000 148.9850000
  87.0090000  31.3930000 162.6320000  87.0880000  31.0010000 163.5020000
  87.7210000  31.0000000 162.1270000  34.6340000  54.8000000 137.7160000
  34.9530000  55.6960000 137.6140000  35.4230000  54.2590000 137.6820000
  32.7290000  66.9970000 141.0280000  33.5720000  67.1910000 140.6190000
  32.6190000  66.0520000 140.9160000  81.4010000  57.1660000 149.5380000
  81.2880000  56.2830000 149.8890000  81.4390000  57.7280000 150.3130000
  36.7770000  55.0450000 154.4330000  37.4900000  55.5240000 154.0110000
  36.3290000  55.7020000 154.9650000  44.1190000  54.5880000 145.3530000
  43.2230000  54.9140000 145.2590000  44.2650000  54.0580000 144.5690000
  55.0640000  61.9180000 155.1390000  55.2560000  62.8530000 155.0610000
  54.1190000  61.8550000 154.9990000  53.6310000  51.5230000 146.7640000
  54.3990000  51.7100000 147.3030000  53.6280000  50.5700000 146.6720000
  36.0610000  37.4930000 129.6370000  36.1570000  37.4490000 130.5880000
  35.3390000  38.1070000 129.4970000  84.6880000  34.9760000 135.9390000
  84.4440000  34.1000000 135.6400000  83.8910000  35.4960000 135.8330000
  78.5260000  47.5270000 155.1920000  77.8510000  47.0790000 154.6820000
  79.2480000  46.8990000 155.2390000  86.2890000  35.3090000 151.1270000
  86.9260000  35.2840000 150.4130000  86.2520000  34.4080000 151.4480000
  69.6830000  49.6550000 142.8120000  68.9680000  49.3600000 143.3770000
  69.2450000  50.0560000 142.0610000  72.2240000  88.9540000 159.3290000
  72.0450000  88.0280000 159.1660000  72.4200000  89.0000000 160.2650000
  64.9430000  36.4740000 125.7950000  65.1570000  35.5670000 126.0110000
  63.9860000  36.4980000 125.7790000  43.3540000  45.8100000 150.5580000
  43.4080000  46.0850000 151.4720000  44.2340000  45.4940000 150.3510000
  54.6120000  61.0780000 128.0820000  55.3960000  61.4080000 127.6440000
  53.8840000  61.4100000 127.5560000  48.3530000  76.4690000 144.1560000
  48.0570000  75.5730000 144.0010000  48.3670000  76.8710000 143.2870000
  68.3100000  77.6910000 142.8250000  67.6430000  78.3710000 142.7420000
  68.5080000  77.4370000 141.9230000  88.9220000  61.4250000 128.4970000
  87.9810000  61.2600000 128.4450000  89.0000000  62.1910000 129.0670000
  54.3100000  44.3680000 158.9290000  54.6920000  44.1020000 159.7650000
  53.3670000  44.2480000 159.0480000  32.7130000  63.0730000 131.4070000
  32.8680000  62.8270000 130.4950000  32.3410000  62.2870000 131.8070000
  49.1730000  73.1420000 123.5460000  48.9520000  74.0720000 123.5000000
  50.1300000  73.1220000 123.5320000  48.7440000  32.7940000 128.1560000
  48.1850000  33.0370000 127.4190000  48.6170000  31.8500000 128.2530000
  52.2640000  89.0000000 143.2150000  52.0050000  88.9570000 142.2950000
  52.7260000  88.1770000 143.3730000  78.5280000  82.4770000 144.5100000
  78.2790000  82.7620000 143.6310000  78.3690000  81.5330000 144.5110000
  43.0380000  66.9260000 161.3110000  43.7520000  66.3200000 161.5070000
  42.4630000  66.8750000 162.0750000  50.7010000  50.2990000 144.3700000
  49.8760000  50.7840000 144.3660000  50.6540000  49.7390000 143.5950000
  33.3820000  49.7980000 140.6600000  34.2780000  49.4700000 140.5830000
  32.8570000  49.0190000 140.8460000  35.1260000  35.3100000 147.1320000
  35.4320000  34.5520000 146.6360000  34.1810000  35.3340000 146.9750000
  53.4090000  47.0470000 158.8350000  53.3450000  48.0010000 158.8890000
  53.9230000  46.7970000 159.6030000  37.3570000  73.4310000 134.8960000
  37.3450000  73.3410000 133.9440000  37.5440000  72.5490000 135.2190000
  79.2410000  58.5530000 163.9980000  79.3760000  59.5010000 163.9970000
  80.1250000  58.1850000 164.0000000  67.3960000  65.6410000 132.4590000
  67.9310000  66.4350000 132.4660000  68.0300000  64.9240000 132.4670000
  66.0180000  48.4330000 162.4410000  65.7790000  48.2560000 163.3510000
  65.2550000  48.8800000 162.0750000  77.4120000  73.7330000 136.1820000
  77.0130000  73.9870000 135.3500000  77.4580000  72.7770000 136.1440000
  87.5630000  40.2970000 159.0210000  86.9800000  41.0520000 158.9520000
  87.0620000  39.6530000 159.5230000  45.4210000  71.4620000 152.2340000
  45.0350000  70.6640000 151.8740000  44.7570000  72.1360000 152.0890000
  63.3980000  70.6000000 162.8660000  64.3460000  70.7250000 162.8840000
  63.2620000  69.8740000 162.2570000  76.0460000  70.5470000 135.7190000
  75.4630000  69.7890000 135.7080000  75.4590000  71.3010000 135.7830000
  86.1160000  35.1640000 163.9290000  85.9460000  34.2250000 164.0000000
  85.2510000  35.5700000 163.9820000  73.5480000  70.8630000 128.7040000
  73.9190000  71.6340000 129.1340000  72.6010000  70.9770000 128.7830000
  60.1880000  73.0010000 155.4300000  60.9390000  72.6720000 155.9240000
  60.5610000  73.6440000 154.8270000  64.6060000  57.3680000 137.0820000
  63.7850000  57.8010000 136.8510000  64.5840000  56.5400000 136.6020000
  68.0630000  86.6110000 134.5440000  68.3850000  87.5120000 134.5580000
  68.8550000  86.0730000 134.5220000  43.6300000  63.6100000 151.0500000
  43.0550000  63.4330000 151.7950000  43.1430000  63.2910000 150.2900000
  67.9290000  58.3130000 158.7790000  67.8640000  59.1560000 159.2290000
  67.9740000  58.5400000 157.8500000  67.6160000  88.7720000 137.8640000
  68.0090000  89.0000000 137.0220000  66.7940000  88.3380000 137.6360000
  86.6630000  83.9450000 152.7190000  86.8620000  84.8600000 152.5200000
  85.7460000  83.8390000 152.4650000  65.1600000  68.2770000 146.3230000
  64.5260000  67.5800000 146.4860000  65.9940000  67.9200000 146.6300000
  38.6050000  39.4610000 156.7510000  37.9320000  40.0430000 156.4000000
  39.3280000  40.0430000 156.9850000  86.8110000  83.0980000 144.6620000
  86.3570000  83.7100000 145.2410000  86.1140000  82.5490000 144.3010000
  88.5470000  83.8300000 154.4100000  89.0000000  83.0310000 154.1430000
  89.0000000  84.5310000 153.9400000  42.7830000  55.0930000 156.6980000
  42.0590000  54.5840000 156.3340000  42.4340000  55.9810000 156.7820000
  54.0250000  31.2330000 164.0000000  53.0990000  31.0000000 163.9380000
  54.0350000  32.1900000 163.9600000  89.0000000  34.5070000 157.2100000
  88.4050000  34.7260000 157.9260000  88.9960000  35.2830000 156.6490000
  38.5600000  50.0660000 154.7100000  38.9980000  50.4230000 155.4820000
  39.2440000  50.0310000 154.0400000  40.3150000  74.9560000 158.6390000
  39.5140000  75.4100000 158.3750000  40.9340000  75.6590000 158.8370000
  37.4270000  50.1990000 158.0230000  37.1230000  50.4960000 157.1660000
  38.2190000  49.6950000 157.8360000  69.6380000  83.5750000 161.4170000
  68.8520000  83.3600000 160.9150000  69.5500000  84.5070000 161.6150000
  42.0570000  36.0130000 154.9260000  42.9660000  36.3130000 154.9150000
  41.5990000  36.6110000 154.3350000  40.1280000  38.8850000 164.0000000
  39.1850000  38.7240000 163.9780000  40.4730000  38.3970000 163.2520000
  44.2940000  38.6630000 154.4250000  44.2500000  39.1570000 155.2440000
  43.4910000  38.8980000 153.9600000  58.6000000  89.0000000 144.9670000
  59.5130000  89.0000000 145.2530000  58.6270000  88.6450000 144.0780000
  70.7200000  73.2520000 141.5070000  69.8490000  73.1740000 141.1180000
  71.0300000  74.1150000 141.2310000  58.8310000  44.4510000 124.9540000
  58.3600000  45.2170000 125.2830000  58.9920000  43.9150000 125.7310000
  64.8790000  67.5970000 123.9890000  64.5290000  66.8930000 124.5340000
  64.1220000  67.9220000 123.5000000  59.9660000  86.7660000 129.2140000
  59.1110000  87.0770000 128.9150000  59.8450000  85.8260000 129.3490000
  83.3440000  85.5350000 134.7910000  82.5020000  85.3160000 134.3930000
  83.3020000  86.4810000 134.9380000  63.5670000  72.4160000 125.8190000
  63.4230000  71.4710000 125.7690000  64.5170000  72.5110000 125.8890000
  67.6790000  82.7360000 163.9860000  67.4940000  83.6750000 164.0000000
  66.8160000  82.3210000 163.9850000  70.4580000  42.7560000 135.2980000
  70.2170000  43.2310000 136.0930000  69.6500000  42.3210000 135.0240000
  41.2780000  33.6190000 142.6660000  41.4430000  34.5440000 142.8470000
  41.8310000  33.4200000 141.9110000  51.1770000  53.3810000 148.8600000
  52.0540000  53.5400000 148.5130000  50.7720000  52.7880000 148.2270000
  75.4490000  75.6190000 142.0760000  75.7450000  74.8450000 142.5540000
  75.9150000  75.5760000 141.2400000  74.5580000  80.6060000 145.7500000
  75.3720000  81.1030000 145.8310000  73.8730000  81.2740000 145.6950000
  56.5990000  37.4510000 145.0950000  56.4870000  36.5310000 144.8550000
  56.1640000  37.5320000 145.9440000  88.4170000  73.4640000 140.7730000
  88.9980000  73.2830000 141.5110000  89.0000000  73.7760000 140.0800000
  56.9890000  51.5370000 143.8100000  57.0630000  52.3150000 143.2590000
  56.6710000  50.8540000 143.2190000  79.4810000  88.7220000 131.8760000
  79.4470000  88.9990000 132.7920000  80.3460000  89.0000000 131.5730000
  77.3140000  71.6300000 156.3550000  77.2320000  71.5820000 155.4030000
  76.8050000  72.4020000 156.6020000  55.6780000  31.3250000 123.6900000
  55.3420000  32.2010000 123.5000000  55.1160000  31.0000000 124.3940000
  72.8410000  85.8320000 149.0920000  72.2590000  85.8310000 148.3320000
  72.5110000  86.5410000 149.6450000  39.7250000  31.0570000 155.5680000
  39.5760000  31.0000000 154.6240000  39.0190000  31.6190000 155.8880000
  86.9610000  69.1390000 137.8730000  86.5870000  68.6000000 137.1760000
  86.8400000  70.0400000 137.5710000  36.1700000  76.3590000 151.5210000
  35.9790000  75.4280000 151.6350000  36.8860000  76.5320000 152.1330000
  31.5530000  80.3260000 131.3460000  31.0010000  80.6000000 132.0780000
  31.0000000  79.7300000 130.8390000  50.9750000  74.0350000 137.9130000
  50.5800000  74.8880000 138.0890000  51.7190000  74.2280000 137.3420000
  52.9210000  35.6800000 163.9270000  53.3220000  34.8140000 163.9980000
  51.9790000  35.5140000 163.9810000  76.3440000  58.4730000 144.3060000
  76.0390000  59.2700000 143.8730000  75.6480000  58.2570000 144.9280000
  48.7470000  53.7240000 128.6430000  49.2600000  54.5140000 128.8130000
  48.0740000  54.0040000 128.0230000  63.5670000  35.0610000 128.1700000
  63.1280000  35.8900000 128.3620000  62.9750000  34.6110000 127.5660000
  46.9570000  77.0730000 146.2090000  47.1830000  76.1530000 146.3430000
  46.0050000  77.0730000 146.1040000  81.1980000  34.9570000 149.4240000
  80.5120000  34.7910000 148.7780000  80.7490000  34.9170000 150.2680000
  63.6860000  65.4500000 163.5860000  64.5230000  65.2400000 164.0000000
  63.0830000  64.7800000 163.9090000  68.9270000  63.7510000 147.3270000
  69.1490000  63.1490000 146.6170000  69.6930000  63.7360000 147.9020000
  48.1260000  82.6080000 149.4250000  48.3170000  83.4630000 149.0400000
  47.3930000  82.7710000 150.0190000  40.9990000  67.0880000 144.7210000
  40.7500000  66.4830000 144.0230000  40.8160000  66.6100000 145.5300000
  67.9610000  39.1110000 143.5010000  67.3150000  39.7830000 143.7170000
  68.4610000  38.9900000 144.3080000  88.8120000  48.3900000 127.0130000
  87.8950000  48.1240000 127.0860000  89.0000000  48.8320000 127.8410000
  83.5800000  72.9500000 145.4380000  84.1020000  73.6890000 145.7500000
  84.2120000  72.3750000 145.0070000  85.0980000  42.9700000 151.4930000
  84.7430000  42.4650000 150.7610000  86.0340000  43.0430000 151.3010000
  55.4230000  75.6950000 124.3070000  54.8970000  75.7620000 123.5110000
  54.8980000  75.1540000 124.8970000  42.1040000  60.3170000 133.2980000
  42.5500000  59.9100000 132.5550000  42.6650000  61.0550000 133.5390000
  31.9370000  74.4770000 147.6960000  31.0000000  74.4760000 147.8890000
  32.1930000  75.3980000 147.7490000  62.3220000  64.3280000 155.8210000
  62.7560000  65.0520000 156.2730000  63.0220000  63.8960000 155.3310000
  63.1810000  71.1640000 135.3160000  62.4560000  71.1540000 135.9400000
  63.9680000  71.1600000 135.8630000  64.1300000  72.4040000 132.8720000
  64.3320000  71.5170000 132.5760000  64.9710000  72.8610000 132.8540000
  48.0380000  51.2100000 138.8420000  47.4740000  50.4370000 138.8720000
  47.4300000  51.9500000 138.8270000  51.2020000  35.8640000 134.6160000
  50.6120000  36.0350000 135.3500000  52.0520000  35.6950000 135.0250000
  40.4500000  61.1030000 125.4740000  40.1360000  60.9760000 124.5780000
  40.2570000  62.0210000 125.6670000  88.9340000  56.9080000 127.3590000
  89.0000000  57.8560000 127.4660000  88.9770000  56.5610000 128.2500000
  78.8630000  82.2540000 131.6970000  78.5190000  81.8400000 132.4880000
  79.2030000  81.5270000 131.1740000  47.4280000  57.1860000 128.6160000
  48.3130000  56.8330000 128.5190000  47.5560000  58.0470000 129.0140000
  56.5210000  51.9330000 124.5590000  56.9300000  52.2370000 123.7490000
  56.8450000  52.5320000 125.2320000  72.2280000  46.0740000 147.2990000
  73.0480000  46.5450000 147.1440000  71.7320000  46.6450000 147.8860000
  85.3610000  88.4150000 158.2930000  84.8320000  89.0000000 157.7500000
  85.9440000  89.0000000 158.7780000  66.2180000  38.4610000 153.0160000
  65.8210000  39.2500000 153.3840000  66.9250000  38.2430000 153.6230000
  42.2790000  74.0580000 152.7010000  42.9820000  73.5620000 153.1200000
  41.4740000  73.6840000 153.0610000  62.5470000  83.1710000 135.6670000
  62.0510000  82.3710000 135.4960000  62.8910000  83.0560000 136.5540000
  54.4630000  54.3200000 156.4240000  54.1940000  55.0680000 156.9580000
  55.2860000  54.5980000 156.0200000  83.6540000  50.2880000 161.6480000
  83.5270000  51.1550000 161.2620000  84.4910000  49.9880000 161.2940000
  63.2280000  80.0600000 159.0680000  62.5410000  80.0860000 159.7340000
  62.7730000  80.2540000 158.2480000  74.6500000  70.4980000 145.2490000
  75.2290000  71.1310000 144.8240000  74.1290000  70.1310000 144.5340000
  41.0620000  61.6960000 130.4660000  40.9840000  60.7490000 130.3580000
  41.3690000  61.8110000 131.3650000  34.4570000  43.5780000 156.6500000
  33.7440000  44.2120000 156.5690000  35.2390000  44.1120000 156.7910000
  47.0430000  69.1660000 157.9660000  46.3990000  69.8700000 158.0400000
  47.2380000  69.1170000 157.0300000  82.9110000  74.0190000 162.3540000
  82.1820000  74.3040000 161.8040000  83.6940000  74.2490000 161.8530000
  35.5980000  80.5510000 148.0460000  36.0670000  79.8590000 148.5120000
  35.7280000  81.3330000 148.5830000  40.8620000  80.0990000 133.6020000
  40.5610000  80.9690000 133.8640000  40.7010000  80.0620000 132.6590000
  71.3750000  77.8420000 123.7470000  70.6740000  77.2390000 123.5000000
  72.1790000  77.3330000 123.6370000  54.4420000  43.2990000 141.0500000
  54.6430000  43.6420000 140.1800000  53.5720000  43.6450000 141.2500000
  55.9580000  34.6110000 149.4750000  56.5860000  35.2990000 149.6920000
  55.1230000  35.0690000 149.3780000  76.9710000  79.0920000 137.6270000
  77.1690000  78.8520000 138.5310000  76.2520000  78.5120000 137.3760000
  58.5830000  82.8530000 161.4600000  58.9550000  82.0440000 161.8100000
  59.3440000  83.3740000 161.1980000  51.1460000  33.7430000 131.8530000
  50.7740000  32.9580000 131.4510000  52.0140000  33.4710000 132.1530000
  51.1440000  80.1060000 155.9980000  51.3040000  79.4300000 155.3400000
  51.8010000  80.7780000 155.8170000  73.2580000  47.2800000 123.5290000
  72.4070000  47.1710000 123.9520000  73.6270000  46.3970000 123.5000000
  86.5930000  48.6470000 148.4580000  87.4230000  48.1940000 148.3120000
  86.7570000  49.2110000 149.2140000  47.7890000  31.0000000 163.9990000
  46.8450000  31.1550000 163.9980000  48.1760000  31.8760000 164.0000000
  52.7480000  87.0140000 127.3660000  53.3870000  86.3310000 127.1630000
  51.9000000  86.5700000 127.3190000  61.5940000  69.8240000 154.8590000
  60.6380000  69.8150000 154.8380000  61.8560000  69.6880000 153.9490000
  46.5950000  63.0640000 140.7100000  47.0020000  62.8870000 139.8620000
  47.2560000  63.5590000 141.1950000  35.2740000  86.1810000 145.9280000
  35.4070000  86.8670000 145.2750000  36.1550000  85.9750000 146.2420000
  57.7200000  39.2150000 143.1280000  58.4000000  39.1680000 142.4570000
  56.9460000  38.8330000 142.7120000  33.3950000  74.8810000 126.7190000
  32.4570000  74.7570000 126.8650000  33.6960000  74.0440000 126.3670000
  81.4450000  33.5350000 126.1740000  81.2970000  34.4800000 126.1300000
  81.4400000  33.2480000 125.2610000  34.4990000  76.7090000 131.0290000
  34.5480000  77.2280000 131.8310000  35.1450000  77.1080000 130.4460000
  68.8780000  45.8160000 131.9950000  68.0730000  45.9750000 132.4870000
  68.6560000  46.0430000 131.0920000  49.4570000  54.5560000 163.9940000
  50.3670000  54.2600000 163.9910000  48.9420000  53.7480000 164.0000000
  86.6240000  71.9790000 131.1070000  86.0030000  71.9670000 130.3790000
  86.3420000  71.2610000 131.6750000  47.4850000  65.6140000 161.0170000
  48.3410000  65.9140000 161.3220000  46.8600000  66.0200000 161.6180000
  60.4870000  78.8250000 161.9610000  60.0700000  79.6460000 161.7020000
  61.3600000  78.8650000 161.5680000  67.7970000  77.8670000 132.2490000
  68.3830000  77.7920000 131.4950000  66.9230000  77.7090000 131.8900000
  75.5800000  52.7890000 142.5790000  76.3420000  53.2830000 142.2760000
  74.8570000  53.4160000 142.5410000  44.2970000  57.3990000 143.3190000
  44.4650000  58.0490000 142.6370000  44.5810000  56.5690000 142.9350000
  36.5590000  69.3500000 132.4000000  36.7040000  69.5220000 131.4690000
  36.0610000  70.1070000 132.7080000  41.3420000  39.2370000 152.6850000
  41.8080000  38.6460000 152.0940000  40.5700000  38.7430000 152.9600000
  37.8540000  78.7930000 137.4770000  36.9740000  78.9060000 137.1180000
  38.1560000  77.9600000 137.1150000  43.5170000  65.3100000 158.0520000
  44.4400000  65.1380000 157.8700000  43.5270000  65.9160000 158.7930000
  70.4160000  31.5370000 159.7560000  71.0160000  31.0000000 159.2380000
  70.2170000  31.0020000 160.5240000  47.4000000  41.8900000 151.3720000
  47.4310000  42.4370000 152.1570000  47.5060000  42.5050000 150.6460000
  80.0300000  61.5630000 157.2700000  80.7420000  62.1900000 157.3940000
  80.3870000  60.7300000 157.5780000  42.7110000  75.4480000 133.7880000
  43.0490000  75.6400000 134.6620000  41.9630000  76.0370000 133.6850000
  41.8740000  68.5050000 125.8540000  41.7310000  69.2510000 126.4370000
  41.0030000  68.2950000 125.5160000  43.5360000  31.0450000 163.3900000
  44.2720000  31.0100000 164.0000000  43.5910000  31.9150000 162.9950000
  39.1080000  72.6680000 124.6020000  39.0720000  73.4440000 125.1610000
  39.9050000  72.2130000 124.8740000  49.8660000  68.4130000 153.2910000
  49.5830000  69.2110000 152.8440000  49.1080000  67.8290000 153.2430000
  55.0510000  70.2310000 131.9230000  54.4390000  70.5970000 132.5610000
  55.5360000  69.5650000 132.4110000  75.3840000  36.1760000 154.9320000
  76.3060000  35.9740000 154.7760000  75.0600000  35.4370000 155.4470000
  41.8510000  58.0770000 130.6420000  42.4300000  57.3270000 130.7770000
  42.3590000  58.6770000 130.0950000  56.0800000  56.2430000 134.3370000
  55.1250000  56.2720000 134.3750000  56.2900000  55.3120000 134.2600000
  66.5000000  50.1300000 160.3020000  67.2210000  50.0310000 160.9230000
  66.4240000  51.0760000 160.1720000  76.7160000  46.2660000 151.8040000
  76.4210000  46.7760000 152.5580000  77.6150000  46.5580000 151.6540000
  71.5320000  60.5300000 163.8360000  70.7200000  60.0460000 163.6900000
  72.2210000  59.8680000 163.7750000  73.4090000  47.5700000 127.5440000
  74.3590000  47.4940000 127.6330000  73.1200000  46.6880000 127.3090000
  76.3380000  54.8840000 148.9470000  76.0380000  54.2860000 149.6310000
  75.8150000  55.6760000 149.0750000  57.7350000  80.7450000 150.1090000
  57.8460000  81.1950000 149.2710000  58.0580000  79.8570000 149.9490000
  47.9270000  81.0860000 141.1210000  47.9590000  80.9890000 142.0730000
  48.3640000  81.9200000 140.9510000  46.6050000  57.9030000 145.7020000
  46.4130000  57.8590000 146.6380000  45.7640000  58.1120000 145.2940000
  69.9330000  68.0780000 135.9360000  70.3210000  67.7810000 136.7590000
  69.4270000  68.8540000 136.1750000  74.0540000  64.9650000 123.8420000
  74.0600000  65.8650000 123.5170000  74.8610000  64.5800000 123.5000000
  64.2270000  54.4660000 138.1070000  64.5810000  53.6750000 137.7010000
  64.9770000  54.8640000 138.5500000  58.2350000  88.0700000 131.1130000
  59.0240000  87.7290000 131.5340000  58.2250000  89.0000000 131.3400000
  31.0000000  64.9700000 133.3430000  31.7470000  64.9870000 133.9400000
  31.0300000  64.0990000 132.9460000  84.2740000  64.1840000 130.0640000
  84.2890000  63.8150000 129.1810000  85.1970000  64.3020000 130.2900000
  85.5070000  66.7780000 163.6030000  86.0990000  66.1220000 163.2360000
  86.0860000  67.4290000 164.0000000  57.9420000  70.8280000 130.9970000
  58.6790000  70.4810000 130.4940000  58.0580000  70.4650000 131.8750000
  35.6310000  41.9670000 143.3050000  35.2770000  41.6910000 144.1500000
  35.0090000  41.6240000 142.6620000  31.0300000  35.2060000 137.7670000
  31.0000000  35.9740000 137.1960000  31.0030000  35.5650000 138.6540000
  69.7930000  57.9520000 129.6940000  68.9740000  58.4430000 129.6320000
  69.5450000  57.0470000 129.5040000  44.4590000  56.9700000 150.5960000
  43.6990000  57.2150000 151.1220000  44.4240000  57.5530000 149.8370000
  45.3920000  35.7930000 146.1370000  44.4820000  35.8980000 145.8580000
  45.9080000  36.0610000 145.3760000  82.3280000  63.8200000 126.9370000
  81.4390000  63.5570000 126.6980000  82.2080000  64.5870000 127.4980000
  88.0540000  44.0010000 138.5290000  87.6750000  44.1980000 137.6730000
  89.0000000  44.0450000 138.3900000  82.1160000  84.9170000 150.9720000
  82.7230000  84.3280000 150.5250000  82.3700000  85.7920000 150.6780000
  55.8420000  77.3530000 143.0630000  56.6460000  77.1150000 142.6030000
  56.0340000  78.2020000 143.4610000  76.3850000  78.6700000 147.8750000
  77.2860000  78.8500000 147.6070000  75.9020000  79.4640000 147.6420000
  55.0600000  51.8790000 156.4960000  55.4500000  51.0050000 156.4860000
  54.1160000  51.7200000 156.5390000  69.4850000  82.2190000 145.1600000
  69.9360000  82.8820000 144.6370000  68.8900000  82.7190000 145.7190000
  53.4170000  42.2950000 130.9570000  52.5930000  42.2490000 130.4730000
  53.6290000  41.3830000 131.1580000  38.8360000  58.6820000 135.1310000
  38.9380000  57.9180000 134.5640000  39.5680000  59.2530000 134.8990000
  83.6310000  88.5670000 126.0480000  83.7830000  89.0000000 126.8870000
  84.4210000  88.0460000 125.8990000  68.5620000  33.6020000 161.3080000
  67.7680000  33.5390000 161.8390000  68.5170000  32.8470000 160.7200000
  34.5230000  83.5000000 150.9090000  33.6600000  83.4200000 151.3130000
  34.7950000  82.5960000 150.7430000  70.0240000  45.9630000 125.2320000
  69.4450000  45.7820000 125.9720000  70.8810000  46.1190000 125.6300000
  49.3850000  32.1250000 151.3140000  50.2440000  32.5120000 151.1500000
  49.5620000  31.1940000 151.4530000  42.1440000  53.3690000 154.1360000
  42.3430000  52.6760000 153.5070000  42.8640000  53.9920000 154.0430000
  31.5580000  71.6280000 162.9210000  31.0000000  70.9370000 163.2770000
  31.0000000  72.4060000 162.9100000  58.6950000  61.0590000 124.6760000
  58.9880000  61.4380000 123.8480000  59.3550000  61.3350000 125.3130000
  51.0300000  59.8520000 156.2310000  51.5030000  60.0790000 157.0310000
  51.5010000  59.0950000 155.8810000  44.9220000  40.2810000 161.9150000
  44.2570000  39.6000000 162.0160000  44.4220000  41.0920000 161.8170000
  88.3050000  36.7020000 126.7260000  88.7580000  37.0230000 125.9470000
  89.0000000  36.5730000 127.3720000  81.2220000  37.1320000 124.8370000
  80.3540000  36.7880000 124.6280000  81.0680000  38.0460000 125.0740000
  59.8560000  83.8840000 124.4490000  60.1010000  83.9540000 123.5270000
  60.6850000  83.7500000 124.9080000  52.2990000  33.4450000 156.5540000
  52.2940000  33.8130000 155.6710000  52.7180000  34.1170000 157.0920000
  46.2560000  39.0060000 143.5440000  46.8260000  39.6590000 143.1360000
  46.8000000  38.6020000 144.2200000  72.2300000  39.7860000 134.8640000
  71.9540000  40.6150000 135.2530000  72.8330000  39.4080000 135.5050000
  59.7320000  72.7230000 124.3130000  59.3970000  73.1070000 123.5030000
  59.7900000  73.4610000 124.9220000  85.6130000  39.6780000 163.4200000
  85.4550000  38.9330000 164.0000000  85.4690000  40.4470000 163.9730000
  77.5710000  47.4090000 164.0000000  78.5030000  47.2690000 163.8330000
  77.1900000  46.5310000 163.9830000  50.1570000  50.8200000 133.6510000
  49.7700000  50.1680000 134.2350000  49.4100000  51.2020000 133.1900000
  32.9540000  71.8730000 133.5640000  32.6000000  72.7270000 133.8100000
  33.8680000  72.0480000 133.3370000  44.9120000  31.2650000 131.9130000
  44.2250000  31.0000000 132.5240000  45.7280000  31.0000000 132.3390000
  38.2310000  41.5600000 161.5120000  38.2160000  40.6180000 161.6790000
  37.3470000  41.8570000 161.7290000  75.8940000  44.4420000 123.5010000
  75.6190000  43.5250000 123.5010000  76.8500000  44.4060000 123.5000000
  72.5520000  39.2270000 144.0790000  71.6170000  39.3710000 144.2250000
  72.6520000  38.2750000 144.0830000  57.9680000  68.3550000 163.4230000
  57.7130000  69.2390000 163.1600000  57.2620000  68.0640000 164.0000000
  74.7350000  40.6280000 140.4290000  75.2570000  39.8280000 140.4900000
  75.3810000  41.3300000 140.3480000  33.8160000  70.8160000 155.2760000
  33.7000000  71.7140000 155.5840000  33.6090000  70.8530000 154.3420000
  73.0210000  84.8100000 163.4600000  73.8060000  84.7170000 164.0000000
  72.4170000  85.3210000 164.0000000  62.7510000  79.3010000 155.1780000
  62.1710000  80.0620000 155.1600000  62.7230000  78.9990000 156.0860000
  86.2870000  31.9700000 133.1020000  86.1430000  31.2620000 132.4740000
  85.4120000  32.3150000 133.2790000  89.0000000  59.5240000 123.9100000
  88.2630000  59.0450000 123.5310000  88.9610000  60.3890000 123.5000000
  62.1930000  50.2640000 144.5630000  61.8340000  49.8470000 145.3460000
  62.5430000  51.0990000 144.8750000  45.0700000  72.3060000 157.5710000
  44.1570000  72.4920000 157.3540000  45.5060000  73.1580000 157.5270000
  62.2090000  57.1330000 159.7870000  62.6650000  57.9350000 159.5350000
  61.5150000  57.4270000 160.3770000  48.1790000  74.4410000 131.3250000
  47.9700000  73.7770000 130.6680000  47.3330000  74.6770000 131.7050000
  44.5570000  72.3150000 142.9820000  44.6050000  72.0120000 143.8880000
  44.9720000  71.6180000 142.4730000  65.0560000  70.5610000 151.8440000
  64.6680000  71.4360000 151.8700000  64.3060000  69.9660000 151.8300000
  88.6430000  41.5830000 147.5010000  89.0000000  41.9760000 148.2970000
  88.6830000  40.6400000 147.6600000  62.4560000  55.6300000 141.5860000
  62.4830000  54.6860000 141.4310000  63.3760000  55.8940000 141.6230000
  58.3840000  49.5740000 149.2140000  59.2720000  49.4350000 149.5420000
  57.8490000  48.9400000 149.6920000  66.0000000  35.2780000 123.5920000
  65.0530000  35.1800000 123.5000000  66.3380000  34.3820000 123.5690000
  46.5410000  62.4130000 127.3480000  46.4100000  61.6920000 127.9640000
  47.4250000  62.7310000 127.5360000  75.9680000  54.4640000 128.0480000
  76.9110000  54.6160000 128.1000000  75.8850000  53.6150000 127.6150000
  86.4850000  79.7150000 124.0120000  85.6400000  79.5720000 123.5850000
  87.1030000  79.1920000 123.5000000  88.4090000  88.8970000 152.5190000
  88.9810000  88.9400000 153.2850000  89.0000000  89.0000000 151.7730000
  53.3090000  63.9610000 153.9230000  53.7640000  64.7110000 154.3050000
  52.4760000  63.9200000 154.3940000  74.1930000  34.2470000 153.1180000
  75.0930000  34.5650000 153.0430000  73.6670000  35.0400000 153.2270000
  67.3580000  43.4640000 162.0350000  66.4880000  43.3970000 161.6420000
  67.5980000  42.5600000 162.2410000  35.4310000  52.6180000 159.0610000
  35.7020000  52.5790000 159.9780000  36.2110000  52.3580000 158.5700000
  59.1590000  33.2610000 128.9280000  58.9940000  33.5520000 128.0310000
  58.4500000  33.6510000 129.4400000  82.6500000  69.3570000 142.4460000
  83.1900000  68.6260000 142.1440000  82.4160000  69.8290000 141.6460000
  67.1870000  82.4610000 128.3890000  66.5980000  82.4440000 129.1430000
  68.0480000  82.6540000 128.7620000  80.7160000  87.7010000 161.0790000
  81.5550000  87.2740000 161.2500000  80.1050000  86.9790000 160.9290000
  77.8280000  78.6920000 132.2770000  78.7040000  79.0750000 132.3210000
  77.2380000  79.4450000 132.2410000  45.7490000  31.8880000 155.5150000
  46.4970000  32.0420000 156.0920000  45.8820000  31.0000000 155.1820000
  70.0640000  87.9800000 147.1280000  70.1230000  88.8390000 146.7100000
  70.8060000  87.4890000 146.7740000  33.4110000  88.0530000 163.1850000
  33.5860000  87.4080000 162.5000000  33.4430000  87.5520000 164.0000000
  51.8060000  33.7960000 149.1590000  52.5310000  34.1190000 148.6240000
  52.2250000  33.4500000 149.9470000  58.2490000  42.0730000 127.7310000
  58.3390000  41.5790000 126.9160000  58.1850000  41.4030000 128.4120000
  72.3470000  52.4530000 157.4400000  73.2470000  52.2330000 157.6790000
  72.0520000  53.0430000 158.1340000  47.2620000  47.5070000 123.8090000
  46.6880000  47.2440000 124.5290000  46.8950000  48.3350000 123.5000000
  53.1760000  63.0570000 134.2350000  53.6820000  63.2110000 135.0330000
  53.2500000  63.8760000 133.7440000  73.0080000  63.7340000 148.9880000
  73.4720000  64.3740000 148.4480000  72.1090000  63.7500000 148.6590000
  71.0980000  55.3770000 145.3370000  70.3860000  55.6720000 144.7700000
  70.8520000  54.4870000 145.5890000  88.9320000  47.0940000 161.4200000
  88.9990000  47.4450000 162.3080000  89.0000000  46.1460000 161.5310000
  59.9230000  62.0560000 152.8900000  59.5100000  61.2040000 153.0290000
  59.1940000  62.6760000 152.8760000  31.0770000  78.9270000 136.4930000
  31.0110000  78.3790000 135.7100000  31.0000000  78.3120000 137.2230000
  89.0000000  73.1110000 157.4600000  88.8450000  73.2470000 158.3950000
  88.1280000  72.9700000 157.0910000  80.9140000  56.6460000 141.1600000
  80.7550000  57.5710000 140.9730000  81.2030000  56.2790000 140.3240000
  56.9370000  71.4630000 164.0000000  57.8550000  71.6500000 163.8050000
  56.4630000  71.7470000 163.2180000  47.7410000  76.3300000 161.8560000
  47.0450000  76.2520000 162.5080000  47.6580000  75.5390000 161.3210000
  48.2100000  86.6700000 137.8100000  47.3260000  86.4140000 137.5450000
  48.2520000  86.4580000 138.7420000  38.8170000  68.3250000 132.0820000
  39.3940000  67.5660000 131.9910000  39.1830000  68.9770000 131.4840000
  34.6560000  63.3240000 147.2990000  33.7480000  63.3130000 146.9970000
  34.7000000  64.0680000 147.9010000  35.1360000  31.0000000 148.6520000
  35.6490000  31.7340000 148.3170000  34.3380000  31.0030000 148.1230000
  79.1650000  86.7340000 150.7980000  78.2820000  86.6050000 150.4530000
  79.5550000  85.8590000 150.7940000  73.5580000  57.1330000 143.6070000
  72.8430000  56.9150000 144.2050000  73.3590000  58.0200000 143.3080000
  81.7430000  37.7920000 148.4250000  81.7990000  38.7320000 148.5950000
  82.0190000  37.3830000 149.2460000  74.9020000  77.8110000 163.9990000
  74.0670000  77.3440000 164.0000000  75.5640000  77.1200000 164.0000000
  46.6990000  66.4530000 138.7750000  45.8540000  66.9000000 138.7340000
  47.3420000  67.1600000 138.8280000  44.9380000  85.1680000 152.0990000
  44.5640000  85.5570000 152.8890000  44.5360000  85.6540000 151.3780000
  31.9550000  52.8900000 127.3820000  32.2500000  51.9800000 127.3870000
  31.0000000  52.8340000 127.3480000  87.5920000  75.8300000 152.9920000
  88.3850000  75.9650000 153.5100000  87.2780000  76.7140000 152.8010000
  31.8760000  88.9260000 123.6620000  32.4180000  88.5890000 124.3750000
  31.0000000  89.0000000 124.0410000  31.6520000  55.6900000 159.2240000
  31.0000000  56.2770000 158.8400000  31.2530000  54.8210000 159.1720000
  39.3130000  74.5350000 145.9750000  39.7900000  75.1000000 145.3670000
  39.9820000  73.9540000 146.3380000  57.7610000  42.7680000 138.1810000
  58.6710000  42.9910000 138.3770000  57.7210000  42.7380000 137.2250000
  31.1430000  59.5020000 160.4950000  31.0000000  58.6000000 160.2080000
  31.0000000  60.0290000 159.7080000  41.2480000  66.0770000 153.5070000
  41.0820000  66.3980000 154.3930000  40.3770000  65.9800000 153.1200000
  59.3090000  41.8010000 144.4050000  59.2870000  41.7120000 143.4530000
  58.3990000  41.9700000 144.6510000  77.3350000  43.1500000 148.4630000
  78.0530000  43.7140000 148.7510000  76.9050000  43.6470000 147.7670000
  61.9420000  56.7030000 144.5740000  61.0910000  56.5100000 144.9670000
  61.7500000  56.8550000 143.6480000  52.2200000  54.8000000 143.6250000
  52.7290000  54.9020000 144.4290000  52.8770000  54.7410000 142.9310000
  65.1010000  73.9630000 123.9370000  65.9570000  73.7390000 123.5710000
  64.8840000  74.8070000 123.5410000  71.8780000  55.5260000 123.5010000
  71.8980000  54.5690000 123.5020000  72.8000000  55.7850000 123.5010000
  44.0860000  76.9240000 139.7300000  44.7000000  77.4940000 140.1920000
  44.6290000  76.2130000 139.3900000  72.1170000  85.7460000 152.2500000
  72.7900000  86.4250000 152.2000000  71.2890000  86.2220000 152.1780000
  34.1770000  85.1550000 140.7790000  34.5090000  84.2580000 140.8020000
  34.3340000  85.4920000 141.6620000  43.4760000  36.0720000 149.0520000
  44.2940000  35.9420000 149.5320000  43.7510000  36.4020000 148.1960000
  55.6120000  58.9540000 154.0590000  56.4040000  59.0220000 154.5920000
  54.9210000  59.3280000 154.6060000  80.8900000  75.8180000 153.7410000
  81.8420000  75.9100000 153.7020000  80.5590000  76.4810000 153.1340000
  55.9270000  33.3210000 162.7800000  56.4500000  32.9720000 162.0590000
  55.1740000  33.7310000 162.3550000  45.5660000  66.4930000 133.3310000
  45.4160000  67.1460000 134.0140000  44.9220000  65.8070000 133.5090000
  82.8450000  46.5140000 142.6760000  82.9260000  47.4440000 142.8880000
  83.7300000  46.1650000 142.7840000  57.1730000  58.1110000 140.0270000
  57.2630000  57.2260000 140.3820000  56.5280000  58.0230000 139.3250000
  59.6510000  38.9480000 145.9340000  60.3970000  39.4750000 146.2210000
  58.9140000  39.5600000 145.9270000  41.3970000  75.6870000 139.1930000
  42.2400000  75.2820000 138.9930000  41.6200000  76.5600000 139.5160000
  42.7590000  84.3860000 155.5930000  42.0920000  84.3040000 156.2740000
  43.5430000  84.6810000 156.0570000  63.0630000  83.8340000 144.2690000
  63.5040000  83.0350000 143.9820000  62.7440000  83.6290000 145.1480000
  51.0650000  62.2170000 128.5040000  50.4060000  61.5260000 128.5690000
  50.5580000  63.0280000 128.4590000  67.6860000  53.5370000 159.8310000
  67.0990000  53.8780000 160.5060000  68.5420000  53.9050000 160.0500000
  44.6450000  62.2040000 156.1930000  44.1460000  62.9690000 155.9070000
  45.4500000  62.5680000 156.5640000  79.4200000  77.5600000 139.6280000
  79.4320000  77.3970000 140.5710000  80.3030000  77.3340000 139.3350000
  62.3700000  36.9170000 138.6750000  62.1650000  37.5080000 137.9510000
  62.3270000  36.0410000 138.2910000  50.8490000  66.0710000 128.2760000
  50.1710000  65.4550000 127.9990000  51.1560000  66.4720000 127.4620000
  83.5040000  46.7670000 145.3430000  82.7300000  46.5360000 145.8580000
  83.6130000  47.7080000 145.4820000  63.3890000  73.3280000 157.1340000
  62.6480000  73.9170000 157.2740000  64.0590000  73.6370000 157.7450000
  83.4330000  40.7640000 152.8720000  83.6160000  40.1150000 152.1930000
  83.0010000  41.4810000 152.4080000  76.4090000  77.9900000 126.5510000
  75.6530000  78.1180000 125.9790000  77.1090000  77.7050000 125.9630000
  31.6720000  89.0000000 146.3330000  31.0710000  88.2890000 146.5540000
  32.4600000  88.8150000 146.8450000  51.6010000  49.0470000 163.9530000
  50.7970000  49.5640000 164.0000000  52.3040000  49.6970000 163.9510000
  42.3700000  51.4030000 129.7080000  41.8470000  52.1910000 129.5580000
  41.8580000  50.6960000 129.3150000  43.2080000  39.3640000 130.9470000
  42.4410000  38.7910000 130.9530000  42.8490000  40.2430000 130.8260000
  59.3450000  52.8370000 163.9470000  59.2550000  51.8850000 163.9910000
  60.2890000  52.9910000 164.0000000  45.7100000  69.0890000 147.4500000
  44.7620000  69.2180000 147.4340000  45.8280000  68.1540000 147.2820000
  70.0800000  87.9330000 149.6390000  69.1850000  88.2350000 149.7930000
  70.4750000  87.8970000 150.5100000  70.7620000  66.9280000 133.4080000
  70.4480000  66.1770000 132.9060000  71.0760000  66.5530000 134.2310000
  34.4570000  59.6280000 134.9090000  34.8520000  59.3640000 135.7400000
  34.9090000  60.4400000 134.6760000  34.1460000  72.5590000 135.7680000
  33.9610000  72.9360000 136.6280000  35.0840000  72.7030000 135.6400000
  32.8360000  83.6970000 144.3930000  33.3950000  84.3550000 143.9810000
  33.0160000  83.7810000 145.3300000  57.2700000  58.3710000 130.1990000
  57.8280000  59.1480000 130.2080000  57.8830000  57.6350000 130.1950000
  88.2810000  86.6530000 126.4240000  87.5940000  86.9030000 125.8060000
  88.8200000  86.0240000 125.9430000  39.3600000  64.8070000 128.7600000
  38.6530000  65.4160000 128.9710000  40.0990000  65.3680000 128.5240000
  70.4980000  83.6420000 157.6810000  70.9670000  84.4690000 157.5760000
  70.8350000  83.0840000 156.9790000  86.5320000  58.2980000 125.7950000
  85.7550000  58.8340000 125.6410000  87.2060000  58.9240000 126.0640000
  80.7210000  60.2330000 161.8010000  81.6510000  60.4610000 161.8040000
  80.2680000  61.0740000 161.7290000  70.5820000  64.6330000 154.0690000
  70.6430000  65.3190000 154.7340000  70.9000000  63.8440000 154.5090000
  74.4080000  48.5100000 135.4710000  74.8000000  48.3360000 134.6150000
  73.4950000  48.2350000 135.3770000  67.9670000  59.2400000 149.3990000
  68.4620000  58.4290000 149.5170000  68.1560000  59.7520000 150.1860000
  70.8760000  49.0130000 128.6620000  71.8230000  49.0400000 128.7970000
  70.6780000  49.8220000 128.1900000  34.3720000  53.4150000 147.6050000
  35.2310000  53.3670000 148.0240000  34.4710000  54.0860000 146.9290000
  45.4660000  44.3530000 157.8030000  45.5740000  43.9460000 156.9440000
  45.2860000  45.2740000 157.6120000  80.3740000  65.5970000 156.4300000
  80.7180000  65.8720000 157.2800000  79.7480000  64.9020000 156.6380000
  39.2520000  63.7160000 153.4030000  40.1850000  63.5010000 153.3830000
  38.9510000  63.3980000 154.2540000  79.2210000  39.6510000 148.1770000
  78.3210000  39.9440000 148.0370000  79.2790000  38.8210000 147.7020000
  34.0600000  81.2140000 153.4360000  34.5480000  81.9910000 153.1630000
  33.4240000  81.0720000 152.7350000  35.0170000  76.4370000 144.3770000
  35.3140000  77.3290000 144.5560000  34.0910000  76.5330000 144.1530000
  55.4970000  60.0870000 125.3820000  56.3700000  60.4810000 125.3900000
  54.9020000  60.8260000 125.2500000  43.2250000  78.7000000 160.9120000
  42.4900000  78.8370000 160.3140000  42.9190000  79.0470000 161.7510000
  40.5720000  79.7180000 148.9410000  40.7620000  80.6490000 149.0520000
  41.4310000  79.3090000 148.8320000  64.4490000  36.1990000 130.5870000
  64.3500000  35.2470000 130.5690000  65.3420000  36.3420000 130.9010000
  56.5460000  71.5790000 151.1450000  56.7000000  70.6340000 151.1720000
  57.3910000  71.9660000 151.3780000  88.2950000  58.8720000 160.4120000
  88.9800000  58.8290000 161.0800000  87.4790000  58.7520000 160.8980000
  84.0340000  35.9040000 149.2490000  84.8250000  35.8350000 148.7140000
  84.3150000  36.3820000 150.0300000  51.6500000  73.7960000 156.5520000
  51.4310000  74.7090000 156.7370000  50.8670000  73.3060000 156.8030000
  56.3410000  66.3210000 155.4160000  56.9060000  66.2420000 156.1840000
  55.9040000  65.4710000 155.3510000  51.8910000  76.4650000 163.1730000
  52.8460000  76.4010000 163.1890000  51.7130000  77.4040000 163.2240000
  69.0970000  54.0010000 153.3700000  68.7440000  54.8560000 153.1240000
  69.0150000  53.9720000 154.3230000  46.1270000  52.4980000 126.5140000
  45.6800000  53.2250000 126.9480000  46.5370000  52.8940000 125.7450000
  37.3880000  59.6340000 145.7250000  38.1870000  59.9800000 145.3280000
  36.9590000  59.1510000 145.0190000  37.3760000  42.2800000 127.0790000
  37.0110000  43.0460000 127.5210000  37.5300000  41.6480000 127.7820000
  41.9510000  70.1600000 123.9820000  42.0560000  69.3390000 123.5030000
  41.2720000  70.6330000 123.5000000  82.1280000  69.5710000 151.3350000
  82.9320000  69.7140000 151.8340000  82.2820000  70.0150000 150.5000000
  59.1070000  78.6070000 127.2240000  58.6670000  78.4290000 128.0550000
  59.3940000  77.7470000 126.9160000  80.0030000  56.8060000 157.3370000
  79.0840000  56.6230000 157.1430000  80.3870000  55.9470000 157.5140000
  86.7330000  88.0010000 161.5370000  86.9750000  88.9260000 161.4960000
  87.5640000  87.5410000 161.6580000  53.5510000  75.1940000 131.5090000
  53.6570000  74.6270000 132.2730000  52.8100000  74.8180000 131.0330000
  53.2270000  51.8350000 138.5420000  54.1620000  51.6470000 138.4670000
  52.7970000  51.0790000 138.1420000  52.5210000  37.2790000 137.5860000
  52.7640000  36.3660000 137.7360000  51.5640000  37.2730000 137.5650000
  65.7770000  57.8700000 150.9200000  65.2370000  57.3210000 151.4880000
  66.5530000  58.0680000 151.4440000  36.7420000  82.8820000 142.8720000
  36.8500000  81.9930000 143.2100000  37.6350000  83.2100000 142.7700000
  56.8320000  51.8220000 161.3450000  56.0490000  52.3120000 161.5950000
  57.5220000  52.4840000 161.2900000  44.4590000  33.9050000 144.0990000
  43.6360000  33.4190000 144.0600000  44.9750000  33.4520000 144.7670000
  48.8210000  72.0400000 152.1420000  48.0330000  71.5240000 152.3080000
  49.4620000  71.7070000 152.7700000  73.5120000  44.9240000 151.3320000
  73.3180000  44.0570000 151.6870000  74.3480000  45.1660000 151.7310000
  81.4240000  37.1900000 155.3640000  82.2090000  37.7350000 155.4070000
  81.5650000  36.5130000 156.0270000  57.6230000  58.7610000 123.5020000
  58.2190000  58.0120000 123.5000000  56.7480000  58.3720000 123.5010000
  34.3910000  31.5680000 128.4180000  33.8410000  31.0000000 128.9570000
  35.1000000  31.0000000 128.1170000  54.1350000  35.6590000 147.0200000
  55.0740000  35.5030000 146.9160000  54.0360000  36.6060000 146.9150000
  58.9310000  34.0710000 123.5260000  59.6420000  34.7110000 123.5170000
  59.3720000  33.2220000 123.5000000  45.7400000  63.8060000 160.6850000
  45.9400000  63.1690000 160.0000000  44.9490000  64.2490000 160.3780000
  60.8440000  84.3480000 147.3900000  61.5510000  84.8790000 147.0250000
  60.2720000  84.1650000 146.6440000  80.7880000  82.4050000 147.5200000
  79.9730000  82.5010000 147.0270000  81.2010000  81.6240000 147.1520000
  66.6530000  38.5010000 139.3990000  67.5940000  38.6660000 139.4390000
  66.2530000  39.3090000 139.7210000  59.1510000  67.1090000 130.4550000
  59.4060000  67.9950000 130.7090000  59.8730000  66.7980000 129.9080000
  51.1320000  41.9340000 123.5000000  51.5630000  41.6710000 124.3130000
  50.2000000  41.7890000 123.6640000  85.5980000  69.5420000 145.8020000
  85.0320000  69.9900000 145.1740000  85.1070000  68.7590000 146.0520000
  72.7320000  51.9090000 141.7540000  71.8130000  52.0620000 141.5340000
  73.2040000  52.0650000 140.9360000  33.9230000  77.0660000 150.4940000
  33.4840000  76.9230000 149.6560000  33.7150000  76.2860000 151.0100000
  80.1320000  70.3240000 153.7330000  80.2090000  70.1620000 154.6730000
  79.5700000  71.0970000 153.6680000  49.9620000  62.3570000 139.2600000
  49.7270000  62.4020000 140.1870000  49.1590000  62.0740000 138.8220000
  38.1730000  55.0350000 158.7040000  38.1310000  55.6260000 159.4550000
  37.3240000  54.5930000 158.6980000  80.3750000  47.8700000 132.6560000
  80.2270000  46.9630000 132.3870000  79.9060000  48.3930000 132.0040000
  70.0370000  37.8430000 123.5000000  70.5360000  38.5460000 123.9150000
  70.5430000  37.0500000 123.6810000  76.8190000  61.2480000 145.1870000
  77.4260000  61.8420000 145.6290000  76.0330000  61.7750000 145.0380000
  80.6290000  62.9890000 123.5290000  81.1890000  62.5470000 124.1670000
  80.9610000  63.8870000 123.5000000  39.3110000  83.8030000 163.7870000
  39.7350000  82.9720000 164.0000000  39.2260000  83.7920000 162.8330000
  51.5900000  62.3160000 147.6190000  52.4450000  62.0930000 147.2500000
  51.0040000  62.3500000 146.8630000  43.0940000  88.6390000 129.2880000
  43.3910000  88.9950000 130.1260000  42.2140000  89.0000000 129.1730000
  57.0120000  53.0340000 146.2460000  57.0150000  53.9750000 146.4210000
  57.9370000  52.7900000 146.2270000  34.8840000  52.3920000 139.6680000
  34.4500000  52.0480000 140.4480000  34.3710000  52.0480000 138.9360000
  58.7480000  54.5730000 152.3900000  59.5810000  54.1090000 152.4720000
  58.0880000  53.8790000 152.3780000  84.8490000  62.1900000 158.9170000
  85.7950000  62.0660000 158.9960000  84.4720000  61.3740000 159.2490000
  49.2060000  69.9240000 149.9850000  49.8510000  70.3180000 150.5720000
  48.5180000  69.6000000 150.5680000  77.9620000  60.4110000 159.2690000
  78.0970000  59.4750000 159.1230000  78.6920000  60.6740000 159.8310000
  31.3460000  44.1620000 140.6250000  31.0000000  45.0190000 140.8720000
  31.0000000  44.0070000 139.7460000  88.8090000  65.5840000 145.3550000
  87.9930000  65.7470000 144.8830000  89.0000000  66.4120000 145.7970000
  79.9040000  88.3700000 155.6150000  79.4570000  87.7060000 155.0910000
  79.2590000  88.6290000 156.2740000  80.1830000  48.3290000 141.0600000
  80.4160000  47.6000000 141.6360000  79.2260000  48.3350000 141.0550000
  38.7750000  86.2110000 135.3430000  38.0440000  85.6650000 135.0530000
  39.3230000  85.6220000 135.8620000  68.2810000  60.2770000 123.7360000
  68.3240000  60.5580000 124.6500000  67.3580000  60.3690000 123.5000000
  44.8950000  88.9530000 158.9390000  44.9760000  88.1590000 159.4670000
  44.8680000  88.6390000 158.0350000  46.9200000  71.7130000 146.0100000
  46.4140000  71.1780000 145.3990000  47.3280000  71.0810000 146.6020000
  68.9710000  33.5780000 128.7540000  68.6530000  34.3990000 128.3800000
  68.2430000  33.2590000 129.2880000  70.8390000  88.4100000 139.2370000
  71.5340000  88.9850000 139.5540000  70.2100000  89.0000000 138.8210000
  54.0400000  73.5740000 143.3420000  54.6490000  74.2870000 143.5360000
  53.2450000  73.8000000 143.8260000  31.1370000  49.3390000 157.1170000
  32.0580000  49.1810000 156.9100000  31.0690000  49.1650000 158.0560000
  50.1250000  44.2430000 125.2540000  50.9610000  44.0420000 124.8340000
  49.7870000  43.3930000 125.5360000  55.5980000  31.5790000 153.1370000
  56.3490000  31.0000000 153.2620000  54.8960000  31.0000000 152.8400000
  84.8350000  68.7320000 139.5520000  84.5590000  68.6810000 138.6370000
  84.1970000  69.3170000 139.9620000  85.6290000  63.9700000 141.4360000
  85.9900000  63.0860000 141.4960000  86.3560000  64.5440000 141.6760000
  81.6070000  44.1900000 142.5170000  82.5400000  43.9950000 142.4290000
  81.1910000  43.3320000 142.6090000  82.4580000  62.0640000 129.0280000
  82.1080000  62.3690000 129.8650000  81.7160000  61.6360000 128.5990000
  32.9830000  87.5140000 144.5030000  33.3210000  87.0890000 143.7150000
  32.7660000  86.7900000 145.0910000  65.8600000  77.0050000 152.2040000
  66.1320000  76.1180000 151.9700000  66.6770000  77.5020000 152.2520000
  52.2960000  69.8930000 131.1640000  52.1260000  69.7240000 132.0910000
  52.9740000  69.2610000 130.9250000  81.8290000  51.2800000 140.1900000
  81.4740000  50.4160000 140.3970000  81.3160000  51.8850000 140.7270000
  84.1550000  34.1140000 138.4550000  84.1970000  33.3230000 138.9920000
  84.4300000  34.8180000 139.0420000  63.0990000  33.9490000 136.8320000
  62.9220000  33.3710000 136.0910000  63.9070000  34.4040000 136.5940000
  34.1860000  67.4860000 143.0240000  34.2320000  66.5640000 143.2760000
  33.7340000  67.9110000 143.7540000  74.1600000  84.1660000 152.0120000
  74.1850000  84.4790000 152.9160000  75.0540000  84.2900000 151.6910000
  51.4320000  84.1140000 150.0050000  52.1550000  84.5320000 149.5380000
  50.8950000  83.7220000 149.3160000  42.0550000  53.9600000 142.9650000
  42.5890000  54.7460000 142.8470000  41.3700000  54.0330000 142.3010000
  41.6880000  62.4750000 139.4870000  42.3270000  61.8320000 139.7910000
  40.9110000  62.3140000 140.0240000  79.4050000  31.3440000 129.2740000
  78.5260000  31.0000000 129.4320000  79.6460000  31.0020000 128.4130000
  48.3800000  54.1310000 137.8280000  48.9510000  54.0650000 138.5930000
  47.5990000  54.5840000 138.1500000  82.5760000  61.4490000 155.0150000
  83.0430000  61.0000000 154.3110000  81.6910000  61.5770000 154.6730000
  36.4510000  46.2990000 134.5050000  35.6410000  46.8090000 134.5430000
  36.1620000  45.4020000 134.3390000  73.6790000  77.9430000 138.5320000
  74.2370000  78.5790000 138.9780000  74.2590000  77.2050000 138.3440000
  83.6770000  84.6980000 129.0850000  83.2310000  84.3100000 129.8370000
  83.9920000  85.5450000 129.4030000  74.8040000  63.6700000 164.0000000
  75.1850000  62.7950000 163.9310000  73.8580000  63.5210000 163.9900000
  59.6260000  72.1710000 142.7620000  60.3830000  71.7610000 143.1780000
  58.8890000  71.6030000 142.9910000  84.0550000  88.9700000 160.4140000
  83.1030000  89.0000000 160.3150000  84.2430000  88.0610000 160.6480000
  38.7660000  31.0000000 141.3950000  39.3640000  31.6870000 141.6910000
  37.9640000  31.4660000 141.1580000  55.3240000  44.4060000 150.5410000
  56.1110000  44.1320000 150.0700000  55.5370000  45.2750000 150.8810000
  41.2610000  64.5310000 131.3750000  40.5890000  64.1250000 130.8270000
  41.2950000  65.4400000 131.0780000  70.6700000  34.6770000 148.1300000
  69.8940000  35.1500000 148.4280000  70.6670000  33.8660000 148.6380000
  75.3630000  32.2400000 143.9570000  75.0500000  32.5350000 144.8120000
  76.2110000  32.6720000 143.8500000  70.8380000  82.3930000 152.9050000
  70.9480000  83.2070000 152.4130000  71.6580000  82.2920000 153.3880000
  40.0120000  51.9350000 157.8510000  39.1600000  52.2760000 158.1210000
  40.2120000  52.4050000 157.0400000  78.5250000  54.3210000 156.3230000
  78.5630000  53.3640000 156.3260000  77.6200000  54.5260000 156.5570000
  41.8160000  64.3030000 141.7900000  42.3250000  63.4960000 141.7160000
  40.9120000  64.0080000 141.9000000  46.5870000  55.0200000 145.4380000
  46.3260000  55.5720000 144.7000000  47.3680000  55.4460000 145.7920000
  48.7260000  85.6190000 160.9450000  49.0950000  86.5020000 160.9490000
  49.4830000  85.0430000 160.8350000  68.3660000  52.5470000 126.7430000
  69.2240000  52.7650000 127.1080000  68.5040000  52.5400000 125.7950000
  50.9860000  52.1010000 142.2390000  50.2430000  52.5590000 142.6330000
  51.6850000  52.1750000 142.8890000  53.9820000  80.8530000 162.2620000
  53.6420000  81.6340000 162.6980000  53.2610000  80.5550000 161.7070000
  31.1640000  40.7420000 145.0180000  31.0000000  40.2130000 145.7990000
  31.0000000  41.6420000 145.3000000  43.8010000  75.8200000 161.6730000
  44.7140000  76.0980000 161.6150000  43.3930000  76.1690000 160.8800000
  63.7580000  75.7230000 144.0740000  64.4230000  76.4030000 144.1820000
  62.9540000  76.2040000 143.8760000  44.5530000  62.2790000 163.9580000
  45.3740000  62.4440000 163.4940000  44.4900000  61.3250000 164.0000000
  39.5180000  66.9220000 137.5100000  40.2150000  67.5780000 137.5040000
  39.0500000  67.0770000 138.3300000  41.1980000  36.0660000 132.9620000
  41.1590000  35.8600000 132.0280000  41.0510000  37.0110000 133.0060000
  34.5770000  50.1430000 127.0490000  34.4770000  51.0440000 126.7450000
  34.4980000  50.2000000 128.0020000  85.8130000  49.8350000 129.3220000
  86.6920000  49.6640000 128.9840000  85.7620000  50.7900000 129.3840000
  48.3400000  78.7920000 159.6340000  48.9870000  79.0320000 158.9710000
  48.7060000  78.0150000 160.0570000  88.4480000  65.0190000 157.4080000
  88.9180000  65.6000000 156.8100000  88.3600000  65.5270000 158.2150000
  73.7380000  66.8160000 143.4050000  73.1630000  66.0910000 143.1610000
  74.5970000  66.4110000 143.5290000  81.9750000  31.7730000 138.1940000
  82.1840000  31.5700000 139.1060000  81.5060000  31.0000000 137.8780000
  55.2220000  84.3070000 131.6640000  55.8740000  83.9540000 131.0590000
  55.2830000  85.2570000 131.5550000  71.9140000  49.9060000 152.6520000
  71.6980000  49.9130000 151.7200000  71.6260000  49.0460000 152.9590000
  31.0300000  53.5280000 136.5430000  31.2090000  52.7690000 137.0980000
  31.0120000  54.2700000 137.1480000  45.5680000  84.9080000 143.9390000
  45.9180000  85.3600000 143.1720000  46.2480000  84.2770000 144.1770000
  51.2980000  47.3380000 142.0730000  51.8820000  48.0630000 141.8510000
  50.4210000  47.7230000 142.0610000  58.3750000  86.0320000 143.4680000
  58.8960000  86.2320000 142.6900000  58.0110000  85.1630000 143.2960000
  78.0500000  43.4780000 151.2400000  78.5800000  44.2750000 151.2430000
  77.1470000  43.7900000 151.3050000  36.6900000  65.3780000 138.5070000
  36.5940000  64.4590000 138.2580000  37.4040000  65.3810000 139.1450000
  39.0630000  81.6010000 144.7950000  39.9790000  81.8530000 144.6780000
  38.6030000  82.4280000 144.9380000  43.0840000  36.2390000 135.4880000
  42.6770000  36.8780000 134.9030000  42.4140000  35.5670000 135.6130000
  83.9130000  60.3350000 143.1370000  84.2520000  60.8820000 143.8450000
  84.1470000  60.8050000 142.3370000  61.2000000  42.3140000 128.3920000
  60.9510000  42.7040000 127.5540000  61.8390000  41.6400000 128.1620000
  34.9440000  44.5430000 140.1360000  34.0360000  44.2710000 140.0040000
  35.3370000  43.8290000 140.6390000  40.0370000  35.5760000 161.8830000
  40.0390000  34.6460000 162.1070000  40.8700000  35.9060000 162.2210000
  43.7030000  41.9290000 155.3530000  44.3340000  41.5880000 155.9870000
  43.8120000  42.8800000 155.3940000  88.4380000  51.1040000 136.8120000
  88.8860000  51.8660000 137.1780000  89.0000000  50.8190000 136.0910000
  64.9850000  65.4910000 153.7870000  64.8430000  64.5560000 153.6390000
  64.1190000  65.8340000 154.0080000  74.7750000  50.4740000 156.7700000
  75.6130000  50.9170000 156.9070000  74.8730000  49.6330000 157.2160000
  38.9710000  47.2260000 154.7230000  39.8020000  47.6290000 154.4710000
  38.8990000  47.3940000 155.6630000  83.4120000  70.3720000 155.8910000
  82.6000000  70.0490000 156.2810000  83.2640000  70.3160000 154.9470000
  71.8630000  44.0070000 123.5150000  71.1100000  43.4160000 123.5320000
  71.4790000  44.8840000 123.5000000  76.4170000  31.9290000 123.5290000
  77.2590000  32.3850000 123.5330000  76.6480000  31.0000000 123.5000000
  34.8730000  47.0190000 161.3770000  35.3230000  47.8600000 161.3090000
  35.5760000  46.3690000 161.3630000  32.7070000  38.0690000 147.5260000
  32.5090000  37.7290000 146.6530000  33.4920000  37.5920000 147.7970000
  77.9750000  84.6900000 132.7140000  77.6230000  84.6020000 133.5990000
  77.2680000  84.3900000 132.1430000  88.9890000  69.2300000 129.9860000
  89.0000000  68.5650000 130.6730000  88.8920000  70.0590000 130.4550000
  47.6670000  43.0580000 140.7710000  48.3180000  43.7490000 140.6490000
  46.8720000  43.5220000 141.0360000  37.3940000  52.7030000 155.7200000
  37.1170000  53.3760000 156.3410000  38.1800000  53.0650000 155.3090000
  77.9880000  49.8730000 163.9380000  78.6970000  50.5090000 163.8460000
  77.1950000  50.4060000 164.0000000  73.2290000  53.7710000 155.1350000
  73.1820000  54.2760000 155.9470000  72.5030000  54.1020000 154.6050000
  81.8020000  75.9050000 156.7680000  81.7660000  76.5950000 156.1060000
  82.4870000  76.1880000 157.3730000  64.3210000  31.0000000 141.1030000
  64.5800000  31.8660000 140.7870000  64.5060000  31.0220000 142.0420000
  41.9370000  63.7200000 128.1280000  42.2360000  63.0050000 128.6880000
  41.3070000  63.3120000 127.5330000  69.0610000  51.8650000 162.7620000
  69.0120000  52.1840000 163.6630000  68.3400000  52.3060000 162.3120000
  39.1490000  55.5360000 133.7670000  39.6680000  54.9840000 134.3530000
  38.3550000  55.0270000 133.6000000  70.9720000  31.0020000 136.1770000
  71.1540000  31.0000000 135.2370000  71.8360000  31.0000000 136.5890000
  78.1520000  33.2330000 127.1450000  77.7350000  32.8020000 127.8910000
  79.0810000  33.2610000 127.3730000  55.3310000  63.1790000 142.1690000
  55.1520000  62.2440000 142.0710000  56.0320000  63.2230000 142.8200000
  35.4890000  45.3910000 149.5060000  36.3970000  45.5740000 149.2670000
  35.5430000  44.6370000 150.0940000  59.9460000  45.8810000 138.9840000
  59.6470000  46.7900000 139.0040000  60.8250000  45.9090000 139.3640000
  36.4660000  55.6620000 135.6240000  36.2790000  54.7540000 135.3850000
  36.4430000  56.1370000 134.7930000  49.1990000  34.3490000 162.1160000
  49.1280000  34.6210000 163.0300000  48.7730000  33.4920000 162.0870000
  85.2400000  86.6620000 141.1420000  85.7170000  86.6300000 140.3130000
  85.6890000  87.3380000 141.6500000  76.5600000  73.4220000 130.4870000
  77.3100000  73.2560000 129.9170000  76.0630000  72.6040000 130.4750000
  67.1140000  39.5670000 148.9420000  67.9480000  39.1110000 149.0570000
  66.5320000  38.9080000 148.5620000  36.1080000  53.7850000 125.9140000
  37.0630000  53.8110000 125.9710000  35.9100000  52.9030000 125.6000000
  81.3390000  40.0350000 146.4020000  81.4720000  39.2070000 145.9420000
  82.2130000  40.4200000 146.4600000  40.2250000  78.4900000 144.5930000
  40.1890000  78.7370000 143.6690000  39.9320000  79.2720000 145.0620000
  76.3040000  41.0820000 123.5000000  76.4570000  41.2720000 124.4260000
  75.7820000  40.2800000 123.5020000  66.2220000  61.6490000 159.2540000
  67.1080000  61.5360000 159.5970000  65.9440000  62.5040000 159.5830000
  38.6590000  81.0050000 147.5120000  37.9090000  80.8620000 146.9350000
  38.2730000  81.1700000 148.3720000  36.6350000  40.3570000 151.7920000
  35.7810000  40.2710000 151.3700000  36.6560000  41.2600000 152.1100000
  71.9320000  33.5110000 151.2230000  72.0010000  33.5000000 152.1780000
  72.5740000  34.1650000 150.9450000  72.4210000  44.4450000 137.4490000
  73.0230000  43.7330000 137.2340000  72.9330000  45.0320000 138.0060000
  31.0000000  86.2060000 160.4160000  31.0240000  87.0140000 160.9290000
  31.0190000  86.4990000 159.5050000  31.0000000  34.2110000 149.7330000
  31.0800000  34.2010000 148.7800000  31.0280000  33.2880000 149.9860000
  44.0590000  84.2740000 163.8810000  44.5220000  83.4370000 163.9180000
  44.7450000  84.9320000 164.0000000  42.3040000  82.8560000 142.9630000
  42.1990000  81.9250000 143.1560000  41.8660000  83.3020000 143.6880000
  71.2780000  61.1830000 152.9520000  70.5340000  61.1650000 153.5530000
  71.4300000  62.1130000 152.7840000  68.0820000  31.4780000 157.9700000
  68.7970000  31.1430000 157.4300000  67.3080000  31.0010000 157.6680000
  82.2290000  75.6590000 132.6870000  81.5680000  74.9680000 132.7340000
  83.0640000  75.1910000 132.6570000  59.6610000  86.6790000 139.1420000
  58.7510000  86.6740000 138.8460000  59.6640000  86.1190000 139.9190000
  36.9540000  49.2340000 152.9720000  36.6360000  48.5340000 153.5420000
  37.6820000  48.8400000 152.4920000  32.4150000  38.5010000 152.5710000
  32.9560000  37.7790000 152.8890000  31.5770000  38.0940000 152.3490000
  66.0590000  79.3700000 153.9030000  66.9080000  79.8070000 153.8410000
  65.6100000  79.6020000 153.0900000  37.6260000  88.0680000 141.1420000
  38.3700000  87.8170000 140.5940000  37.4880000  88.9950000 140.9480000
  69.0820000  50.4030000 153.8210000  69.2080000  49.6230000 153.2810000
  69.5100000  51.1060000 153.3310000  31.0000000  41.0710000 127.4140000
  31.1000000  41.8060000 128.0190000  31.1330000  40.2930000 127.9570000
  87.3630000  75.3420000 150.3000000  86.5830000  75.1330000 150.8130000
  88.0080000  74.6850000 150.5640000  72.5740000  88.9870000 149.1330000
  73.4420000  88.9660000 148.7310000  71.9670000  89.0000000 148.3930000
  63.6070000  35.7240000 158.6860000  63.4530000  34.8030000 158.8940000
  64.4830000  35.9040000 159.0270000  44.4460000  81.6440000 160.8090000
  43.6130000  81.8870000 161.2140000  45.0070000  82.4090000 160.9370000
  37.9800000  48.2110000 138.9010000  37.1050000  47.8990000 139.1310000
  38.3480000  47.5140000 138.3560000  44.5200000  33.7530000 157.8010000
  43.7960000  34.2590000 157.4340000  44.3220000  33.6940000 158.7360000
  57.9810000  56.4250000 153.9000000  57.1120000  56.3390000 153.5100000
  57.9410000  55.8950000 154.6960000  65.3440000  80.8580000 127.0620000
  65.4920000  79.9640000 127.3720000  64.4230000  81.0310000 127.2600000
  72.0550000  88.9550000 128.7140000  73.0040000  89.0000000 128.8330000
  71.7000000  89.0000000 129.6020000  49.5750000  66.9320000 158.2970000
  49.4480000  67.8520000 158.0660000  49.4760000  66.9080000 159.2490000
  33.7740000  68.1580000 152.6290000  33.1810000  68.6800000 153.1680000
  33.4390000  67.2640000 152.7000000  80.2290000  66.4020000 159.9480000
  80.9980000  65.8630000 159.7660000  80.5620000  67.1220000 160.4840000
  79.5950000  39.1960000 157.7140000  79.3240000  39.4130000 158.6050000
  80.2980000  39.8150000 157.5190000  83.9340000  88.7020000 139.2970000
  84.0900000  87.8610000 138.8670000  84.8030000  89.0000000 139.5660000
  79.4550000  67.1590000 154.6290000  79.8300000  67.5480000 153.8390000
  79.2090000  67.9090000 155.1720000  59.1000000  46.7600000 134.5280000
  59.6130000  47.3060000 135.1240000  59.5400000  46.8500000 133.6820000
  37.8200000  62.8040000 146.6970000  37.3070000  62.0350000 146.4480000
  38.3500000  62.5090000 147.4380000  54.5460000  39.9300000 123.5000000
  55.4960000  40.0470000 123.5000000  54.4210000  38.9810000 123.5020000
  31.0020000  75.7640000 150.7120000  31.0000000  76.3810000 149.9800000
  31.6050000  75.0720000 150.4410000  84.8430000  40.2840000 160.7820000
  84.6590000  40.6130000 159.9030000  84.0070000  39.9300000 161.0860000
  44.2320000  70.8300000 159.5060000  43.8630000  70.3130000 158.7900000
  43.6170000  71.5550000 159.6190000  87.7980000  34.0370000 147.8370000
  86.8970000  34.2300000 148.0970000  88.3320000  34.3600000 148.5640000
  88.5980000  41.9610000 151.9280000  89.0000000  41.8490000 151.0660000
  89.0000000  42.7560000 152.2780000  80.1600000  39.4840000 154.9610000
  79.2360000  39.4890000 155.2110000  80.3770000  40.4070000 154.8290000
  33.4380000  79.1320000 129.3320000  33.2770000  78.8880000 130.2440000
  34.3910000  79.2050000 129.2680000  67.5530000  86.0700000 139.2820000
  66.6580000  86.4000000 139.2100000  68.0530000  86.8050000 139.6380000
  76.0650000  81.4150000 133.9340000  75.6640000  81.3240000 134.7980000
  76.5530000  82.2380000 133.9810000  31.0480000  73.6780000 129.0860000
  31.0000000  74.6140000 128.8920000  31.0000000  73.2520000 128.2300000
  78.3530000  84.0390000 123.5010000  77.7140000  83.9090000 124.2010000
  78.6480000  84.9440000 123.6100000  64.3770000  45.5020000 138.3730000
  64.8300000  46.3440000 138.3400000  65.0740000  44.8500000 138.2990000
  68.0720000  31.3990000 163.9430000  67.7130000  32.2840000 164.0000000
  68.1740000  31.2420000 163.0040000  88.6940000  86.5530000 151.3620000
  88.8120000  86.4100000 152.3010000  87.7800000  86.8230000 151.2730000
  50.9170000  85.3720000 131.7330000  51.6660000  84.7790000 131.7810000
  50.7990000  85.5350000 130.7970000  75.1180000  32.1420000 135.6050000
  75.4080000  32.5930000 136.3980000  74.1890000  32.3620000 135.5300000
  69.7350000  75.1210000 157.2060000  69.6470000  75.2220000 156.2590000
  70.6700000  75.2440000 157.3750000  59.9340000  69.9850000 150.1520000
  60.4640000  70.7730000 150.0360000  59.0320000  70.3060000 150.1930000
  73.6240000  63.8020000 160.6000000  73.4120000  64.1330000 161.4730000
  72.7790000  63.7530000 160.1510000  42.7180000  62.1480000 161.6910000
  43.6500000  62.0580000 161.4950000  42.5200000  61.4070000 162.2640000
  73.2480000  79.3970000 162.8320000  72.4830000  79.3940000 163.4070000
  72.9920000  78.8490000 162.0890000  44.5940000  69.6850000 134.1410000
  45.4730000  70.0390000 134.2740000  44.0620000  70.0980000 134.8210000
  49.5970000  70.9380000 142.9200000  49.2190000  71.0030000 143.7970000
  49.1220000  70.2170000 142.5070000  84.0930000  54.1850000 162.6950000
  83.2040000  54.4950000 162.5250000  84.0010000  53.2370000 162.7980000
  69.2080000  74.9310000 150.9830000  69.2850000  74.3940000 151.7710000
  69.5900000  74.3940000 150.2880000  34.6400000  85.8560000 135.2850000
  33.8110000  86.0840000 134.8650000  35.2570000  86.5180000 134.9710000
  33.7910000  44.6120000 134.3990000  33.5000000  45.5210000 134.4600000
  33.6510000  44.2550000 135.2760000  64.1060000  81.9710000 134.1250000
  63.5390000  82.4060000 133.4880000  64.0310000  81.0400000 133.9150000
  57.7660000  44.7860000 163.3990000  57.6460000  45.5450000 163.9690000
  57.8340000  44.0430000 163.9990000  69.7080000  48.1730000 156.7150000
  69.9110000  49.0220000 156.3220000  70.3600000  48.0670000 157.4070000
  76.2300000  67.4220000 131.4500000  75.5100000  66.8120000 131.6080000
  75.9810000  68.2150000 131.9250000  39.1680000  59.0910000 153.0800000
  38.3740000  58.6150000 152.8380000  39.5850000  58.5400000 153.7430000
  50.4680000  64.9170000 156.9860000  49.8380000  64.2020000 156.9080000
  51.1830000  64.6740000 156.3970000  42.4480000  51.9580000 127.0350000
  43.1440000  52.2920000 126.4690000  41.6720000  52.4580000 126.7810000
  55.1100000  65.9170000 146.4600000  55.6100000  66.7170000 146.2960000
  55.7500000  65.3050000 146.8250000  32.7650000  33.4710000 140.1970000
  33.0600000  34.3680000 140.0380000  33.1440000  33.2410000 141.0460000
  73.0890000  50.8490000 124.0930000  72.6810000  51.4800000 123.5000000
  73.6290000  50.3000000 123.5240000  39.6950000  42.3680000 152.4040000
  38.7890000  42.6710000 152.4540000  39.7440000  41.6530000 153.0390000
  43.0860000  58.9360000 147.8700000  43.8380000  58.4260000 147.5690000
  43.4570000  59.7790000 148.1320000  64.4940000  58.1410000 131.0970000
  64.1020000  59.0120000 131.1570000  64.2650000  57.7170000 131.9240000
  71.6890000  31.3420000 155.9460000  72.0120000  31.0000000 156.7790000
  70.7760000  31.0540000 155.9060000  86.6630000  88.1270000 137.3760000
  86.5090000  88.9990000 137.7380000  86.4430000  87.5280000 138.0900000
  31.0000000  65.3780000 139.0260000  31.6100000  65.9980000 138.6270000
  31.5290000  64.5990000 139.1990000  88.7970000  64.0890000 140.1510000
  88.1610000  63.3880000 140.2920000  89.0000000  64.4090000 141.0310000
  88.9830000  76.1400000 123.9430000  88.9920000  76.9880000 123.5000000
  88.2890000  75.6470000 123.5040000  40.8120000  58.4430000 146.9560000
  41.2460000  58.0380000 146.2050000  40.0300000  58.8550000 146.5870000
  74.9330000  49.7060000 128.6470000  74.9970000  49.8100000 129.5960000
  75.8390000  49.6020000 128.3550000  66.8320000  62.0000000 163.1960000
  67.3110000  61.8000000 164.0000000  67.4940000  61.9640000 162.5060000
  73.5050000  44.5900000 144.9250000  74.0530000  44.7800000 145.6860000
  72.7430000  45.1610000 145.0300000  31.9520000  52.2070000 156.8740000
  32.1900000  52.3160000 157.7950000  31.0000000  52.1030000 156.8830000
  59.4350000  70.5670000 134.4350000  60.3630000  70.6270000 134.6640000
  59.2650000  71.3540000 133.9170000  39.2480000  39.5060000 131.7250000
  38.8760000  38.7000000 132.0830000  40.1930000  39.4120000 131.8520000
  34.9910000  64.9160000 130.8250000  34.0940000  65.0090000 130.5050000
  35.0050000  64.0590000 131.2530000  41.2590000  33.0110000 136.7690000
  42.1080000  33.2050000 136.3710000  41.2940000  32.0740000 136.9650000
  79.1920000  85.1330000 126.3280000  78.2370000  85.1050000 126.3880000
  79.3790000  85.9510000 125.8660000  83.9200000  39.9590000 128.8630000
  83.8760000  39.1070000 128.4310000  84.4480000  40.5000000 128.2750000
  62.8230000  63.0100000 145.3280000  63.6630000  62.5530000 145.3590000
  62.1910000  62.3350000 145.0810000  65.0830000  68.7640000 148.8290000
  65.3270000  69.4750000 149.4210000  65.4640000  67.9800000 149.2260000
  88.4140000  62.1560000 154.1320000  89.0000000  62.2350000 154.8840000
  89.0000000  62.0660000 153.3800000  70.4920000  37.5660000 146.9430000
  70.3240000  37.9840000 146.0990000  69.6980000  37.7290000 147.4540000
  50.1580000  37.2260000 163.9960000  49.9850000  38.1670000 163.9650000
  50.1410000  36.9490000 163.0800000  83.0070000  50.6020000 128.0140000
  83.3090000  50.6590000 128.9200000  83.2440000  49.7170000 127.7370000
  80.5720000  56.5190000 154.8920000  80.0070000  55.7460000 154.9020000
  81.4290000  56.1930000 155.1680000  76.1430000  46.5200000 146.7610000
  75.5660000  46.9080000 146.1040000  76.3900000  45.6710000 146.3920000
  33.5310000  41.3830000 128.4870000  34.4310000  41.5030000 128.1850000
  33.4530000  41.9600000 129.2460000  49.2630000  41.6940000 163.9330000
  48.8080000  40.8550000 164.0000000  50.1910000  41.4610000 163.8980000
  46.1630000  42.9570000 138.5480000  46.1420000  42.0420000 138.8250000
  45.3200000  43.0980000 138.1170000  52.6920000  84.0440000 144.6460000
  51.8910000  83.8950000 144.1440000  53.0620000  83.1700000 144.7720000
  50.7760000  44.7650000 159.7230000  51.3370000  45.4540000 160.0800000
  51.1190000  43.9550000 160.1020000  58.6230000  39.8010000 156.3620000
  57.8090000  39.3850000 156.0760000  58.3700000  40.6980000 156.5820000
  67.6080000  35.2100000 125.6310000  67.6110000  35.6480000 126.4820000
  67.9240000  34.3250000 125.8160000  63.1830000  52.0990000 156.3640000
  62.8810000  51.2290000 156.6240000  63.9290000  51.9320000 155.7880000
  82.6480000  31.5820000 132.4480000  82.9690000  32.4550000 132.6740000
  83.3850000  31.0000000 132.6370000  77.3060000  70.1240000 162.2460000
  77.0460000  71.0040000 161.9730000  76.7030000  69.5410000 161.7850000
  45.8290000  40.2900000 150.2660000  45.3160000  39.4830000 150.2340000
  45.1760000  40.9870000 150.3410000  44.0010000  63.8170000 139.2120000
  43.3620000  64.5220000 139.3190000  44.8510000  64.2550000 139.2540000
  70.8480000  85.9110000 124.2240000  71.0670000  85.3250000 123.5000000
  70.6560000  85.3250000 124.9570000  45.8810000  43.8090000 160.8350000
  45.0680000  43.5470000 160.4020000  46.1160000  44.6400000 160.4220000
  31.5860000  33.8330000 159.3320000  31.0000000  33.6080000 158.6100000
  31.0000000  34.0660000 160.0530000  83.3720000  55.0190000 123.9710000
  83.2650000  54.6770000 124.8590000  83.9130000  54.3680000 123.5260000
  83.6470000  54.4310000 136.1150000  84.3970000  53.8380000 136.1420000
  84.0090000  55.2630000 135.8080000  86.8850000  33.3900000 137.2920000
  87.7640000  33.0850000 137.5170000  86.6130000  33.9140000 138.0460000
  70.9950000  81.3370000 160.6980000  70.8670000  81.9460000 159.9710000
  71.7880000  80.8520000 160.4670000  69.4670000  60.0060000 147.5220000
  69.0340000  60.8550000 147.6030000  69.0110000  59.5720000 146.8000000
  76.9410000  56.9540000 146.6360000  76.9530000  56.0020000 146.5400000
  77.1860000  57.1060000 147.5500000  43.5270000  80.0810000 144.6900000
  42.6360000  79.7990000 144.4850000  43.9770000  79.2790000 144.9600000
  73.6360000  31.0070000 130.7450000  73.5690000  31.0000000 131.7000000
  74.5780000  31.0000000 130.5710000  38.9760000  39.8700000 150.9080000
  38.8800000  39.5370000 150.0160000  39.7850000  40.3820000 150.8870000
  34.1800000  61.1640000 161.0780000  33.2270000  61.2560000 161.0640000
  34.3330000  60.3250000 161.5120000  56.5690000  31.4300000 155.7170000
  56.4120000  32.3150000 155.3880000  56.6520000  31.5380000 156.6650000
  38.1600000  74.1760000 163.0180000  37.4700000  73.8400000 163.5900000
  38.7450000  73.4310000 162.8830000  88.8530000  75.8260000 148.0240000
  89.0000000  74.9050000 148.2370000  87.9750000  75.8480000 147.6430000
  63.8270000  69.7140000 156.1300000  63.3850000  70.4920000 156.4710000
  64.6820000  69.7160000 156.5610000  74.9230000  61.6880000 159.2240000
  74.1150000  62.0620000 158.8730000  75.4720000  61.5380000 158.4540000
  88.7590000  82.6310000 163.9670000  89.0000000  82.4120000 163.0670000
  87.8110000  82.5000000 164.0000000  65.3230000  70.6840000 147.1500000
  65.5270000  71.0330000 146.2830000  64.8810000  71.4040000 147.6010000
  57.6820000  45.2900000 136.9520000  57.7600000  45.3280000 137.9050000
  58.5800000  45.1740000 136.6420000  79.1610000  43.8910000 159.5490000
  78.5600000  44.3450000 160.1390000  79.8100000  44.5540000 159.3120000
  32.7810000  55.0290000 153.9500000  33.0440000  54.9330000 153.0350000
  33.0240000  55.9270000 154.1760000  39.8990000  52.8250000 124.3760000
  40.0690000  53.5610000 124.9640000  40.0590000  53.1760000 123.5000000
  55.0850000  84.8810000 155.9980000  55.9590000  84.5030000 156.0910000
  55.2240000  85.8260000 156.0710000  79.4080000  70.5180000 157.1930000
  79.2520000  69.5860000 157.0470000  80.3390000  70.5760000 157.4080000
  53.3460000  42.2230000 163.9570000  54.1890000  41.7690000 163.9750000
  52.6950000  41.5220000 164.0000000  33.6390000  66.7360000 164.0000000
  34.4390000  66.8120000 163.4800000  33.4180000  65.8050000 163.9660000
  35.8580000  57.7210000 143.2650000  35.5700000  57.2910000 144.0700000
  35.2900000  57.3610000 142.5840000  35.9380000  78.8910000 139.7680000
  35.5530000  78.0410000 139.5550000  35.3320000  79.5300000 139.3920000
  61.6500000  64.7310000 153.0820000  62.4750000  64.2910000 152.8760000
  61.1680000  64.0990000 153.6150000  37.7990000  39.0460000 153.9310000
  38.4960000  39.7000000 153.9760000  37.0000000  39.5310000 154.1370000
  34.2330000  66.5180000 146.1650000  35.0440000  66.2000000 146.5620000
  33.6350000  66.6390000 146.9030000  48.8430000  66.2990000 133.2120000
  48.4400000  65.4310000 133.2090000  49.7720000  66.1320000 133.3740000
  74.0130000  76.9210000 143.6540000  73.7590000  77.8430000 143.6450000
  73.2120000  76.4490000 143.4270000  80.3550000  31.0000000 134.9460000
  80.4490000  31.4500000 134.1070000  79.8560000  31.6080000 135.4910000
  48.9250000  72.2300000 149.0610000  49.0900000  71.8800000 148.1860000
  48.8710000  73.1770000 148.9360000  86.1360000  51.9640000 159.2430000
  86.9810000  51.5870000 159.4890000  85.5840000  51.8380000 160.0150000
  85.4070000  34.2120000 123.5210000  86.3600000  34.1300000 123.5000000
  85.1880000  34.2240000 124.4540000  69.0060000  44.9380000 147.7420000
  69.7620000  44.4260000 147.4580000  69.3840000  45.7090000 148.1660000
  89.0000000  32.7130000 163.5050000  89.0000000  33.1180000 162.6380000
  88.3430000  33.2030000 164.0000000  33.1120000  83.9130000 137.4760000
  33.5250000  83.4310000 136.7600000  33.3380000  83.4140000 138.2620000
  85.5060000  67.0870000 156.1580000  86.4240000  66.8180000 156.1540000
  85.0150000  66.2650000 156.1980000  45.6280000  81.3860000 136.1180000
  44.9990000  81.0760000 135.4680000  46.3910000  80.8180000 136.0040000
  57.0230000  87.5700000 133.9030000  57.5580000  86.8340000 134.1990000
  56.1450000  87.3780000 134.2350000  59.7840000  78.5130000 154.2570000
  59.9120000  79.4610000 154.2720000  60.6300000  78.1510000 154.5240000
  88.7100000  63.0360000 123.5280000  87.7590000  63.0880000 123.6110000
  89.0000000  63.9480000 123.5000000  54.8680000  88.9540000 132.0880000
  54.6780000  89.0000000 133.0240000  55.8240000  88.9490000 132.0370000
  53.2880000  51.1010000 161.7060000  52.5390000  50.6510000 161.3140000
  53.4090000  51.8810000 161.1640000  64.8280000  66.4410000 156.4660000
  65.3480000  65.6390000 156.4330000  65.4130000  67.1210000 156.1320000
  55.0020000  75.0600000 138.2590000  55.3130000  74.1880000 138.5000000
  54.8450000  75.0070000 137.3160000  63.5080000  65.1620000 137.9940000
  64.3540000  65.1320000 137.5470000  63.0850000  65.9510000 137.6540000
  62.2910000  56.5280000 157.3630000  63.0820000  56.0870000 157.6740000
  62.4630000  56.7040000 156.4370000  50.8990000  83.0630000 164.0000000
  50.5000000  82.1950000 163.9580000  51.8340000  82.9040000 163.8670000
  38.6940000  71.6390000 153.9900000  39.4830000  71.8200000 153.4800000
  38.9190000  71.9060000 154.8820000  37.1300000  56.9280000 123.5050000
  37.8830000  57.5190000 123.5000000  36.3690000  57.5080000 123.5100000
  49.7580000  56.3790000 150.3740000  49.2300000  56.9940000 150.8830000
  50.6570000  56.6900000 150.4800000  34.7140000  36.3850000 163.9930000
  33.7580000  36.3340000 164.0000000  34.9040000  37.3210000 163.9360000
  40.2890000  61.2720000 148.4180000  40.5730000  62.1190000 148.7630000
  40.9540000  60.6540000 148.7210000  49.2840000  46.8530000 128.5320000
  48.4850000  47.2140000 128.9160000  49.9390000  47.5430000 128.6500000
  84.1050000  81.6130000 128.9310000  84.1980000  80.7280000 128.5800000
  84.6830000  82.1490000 128.3860000  77.1220000  42.4330000 159.3800000
  76.6750000  42.6090000 160.2070000  77.4350000  41.5320000 159.4630000
  73.5230000  70.8790000 149.4060000  73.2300000  70.4090000 148.6250000
  73.1980000  70.3540000 150.1380000  61.9250000  79.3350000 133.7660000
  62.2880000  79.5370000 132.9040000  61.0730000  79.7720000 133.7750000
  75.1810000  68.7420000 139.1980000  75.6960000  68.8760000 139.9940000
  74.5190000  68.0970000 139.4460000  69.4990000  78.2780000 125.4820000
  69.3460000  78.7210000 126.3160000  68.8450000  77.5790000 125.4570000
  34.0570000  45.9250000 129.8540000  34.9460000  46.2420000 130.0150000
  33.5210000  46.3700000 130.5110000  72.9040000  41.3270000 123.5000000
  73.7560000  41.7430000 123.6310000  72.8860000  40.6090000 124.1340000
  34.5780000  63.2940000 133.7400000  34.0390000  64.0640000 133.5580000
  33.9560000  62.5670000 133.7720000  33.0740000  40.6990000 125.2210000
  33.0640000  41.3360000 124.5070000  33.0680000  41.2300000 126.0180000
  35.7150000  60.7090000 143.5090000  34.9700000  61.3040000 143.5860000
  36.4400000  61.2670000 143.2250000  35.6930000  36.5160000 135.4240000
  35.8450000  36.5800000 136.3670000  34.7650000  36.2910000 135.3460000
  56.9750000  89.0000000 138.9070000  56.1030000  88.9790000 139.3010000
  57.5760000  88.9660000 139.6520000  85.8160000  70.5790000 153.6240000
  86.5970000  70.7970000 153.1150000  85.1210000  71.1130000 153.2380000
  71.0190000  36.0100000 130.6810000  70.4480000  35.2800000 130.4410000
  71.8440000  35.8280000 130.2300000  74.0780000  82.9180000 143.8230000
  74.9430000  82.5090000 143.8040000  74.2570000  83.8580000 143.8240000
  31.0680000  36.0990000 158.4110000  31.0000000  35.9530000 157.4670000
  31.9890000  36.3200000 158.5540000  52.2920000  38.9880000 158.0640000
  52.6120000  38.8770000 158.9590000  51.3600000  38.7750000 158.1150000
  31.0060000  72.3400000 159.5830000  31.0000000  73.2030000 159.1690000
  31.2690000  71.7400000 158.8840000  86.9840000  33.4070000 154.6710000
  86.6860000  34.0160000 153.9960000  87.7920000  33.7950000 155.0050000
  72.7690000  47.9190000 139.2370000  72.4280000  47.8620000 138.3450000
  73.2060000  48.7710000 139.2730000  33.5370000  70.3470000 140.4790000
  33.6090000  71.0970000 141.0690000  33.2310000  69.6320000 141.0360000
  50.7930000  86.0650000 157.6280000  50.6010000  86.7190000 156.9570000
  51.0740000  85.2920000 157.1370000  48.9200000  72.1460000 158.2020000
  48.7890000  71.2050000 158.3170000  48.0370000  72.5160000 158.2250000
  88.1810000  86.9710000 140.5680000  89.0000000  87.0030000 141.0610000
  87.8750000  87.8780000 140.5510000  60.0740000  47.2030000 130.7790000
  59.6080000  46.5420000 130.2680000  60.9810000  46.8980000 130.7950000
  77.5510000  68.7750000 153.5000000  77.5000000  68.8320000 152.5460000
  77.4970000  69.6840000 153.7980000  75.0960000  57.1180000 133.8460000
  75.1900000  56.7070000 132.9870000  74.4130000  57.7780000 133.7240000
  34.9170000  35.9120000 153.3150000  35.5350000  35.1860000 153.4030000
  34.3130000  35.8030000 154.0490000  76.8850000  78.2350000 123.5100000
  75.9410000  78.3930000 123.5110000  76.9670000  77.2810000 123.5000000
  58.8800000  60.1160000 139.0290000  58.4960000  59.4900000 138.4160000
  59.3830000  60.7160000 138.4770000  80.1150000  33.9280000 153.7310000
  80.4460000  34.7340000 154.1260000  80.5590000  33.8750000 152.8840000
  60.0000000  60.0000000 110.0000000  90.0000000  90.0000000  90.0000000
