default_name
 31016
  85.5850000  72.0510000 100.9320000  86.4250000  72.7280000 101.7000000
  87.7230000  72.0900000 102.2050000  87.9440000  70.7740000 101.9180000
  86.8980000  69.9580000 101.1000000  85.7730000  70.5650000 100.6240000
  84.5100000  73.0110000 100.4480000  84.8310000  74.2280000 100.9490000
  88.4320000  72.6570000 102.7710000  88.8380000  70.2980000 102.2600000
  87.0650000  68.9190000 100.9050000  85.0510000  70.0220000 100.0500000
  84.3730000  75.1520000 100.6570000  85.9190000  74.0970000 101.9580000
  85.5430000  74.1610000 102.8820000  83.3100000  72.6730000  99.5460000
  82.6210000  73.4400000  99.2620000  83.1390000  71.4930000  99.1420000
  76.9540000  55.1540000 110.4500000  77.3860000  55.7920000 109.3730000
  76.5090000  56.8280000 108.6640000  75.2340000  57.0090000 109.1200000
  74.7030000  56.1770000 110.3270000  75.5220000  55.2940000 110.9670000
  78.1140000  54.3510000 111.0180000  79.1850000  54.6180000 110.2320000
  76.8800000  57.3900000 107.8330000  74.5960000  57.7220000 108.6450000
  73.6930000  56.3030000 110.6580000  75.1760000  54.7250000 111.8040000
  80.1960000  54.3440000 110.4600000  78.7550000  55.3520000 109.0110000
  78.7260000  54.7330000 108.2260000  78.0840000  53.4380000 112.2570000
  78.9720000  52.9290000 112.5680000  77.0140000  53.2900000 112.9040000
  74.5410000  35.6840000 105.1980000  73.5770000  34.8150000 104.9330000
  73.8630000  33.3120000 104.8740000  75.1580000  32.9000000 105.0110000
  76.2990000  33.9400000 105.2200000  76.0090000  35.2690000 105.3140000
  73.9060000  37.0540000 105.3740000  72.5690000  36.8760000 105.2370000
  73.0730000  32.6050000 104.7240000  75.3910000  31.8570000 104.9700000
  77.3150000  33.6110000 105.2950000  76.7790000  35.9950000 105.4690000
  71.8260000  37.6110000 105.4720000  72.2850000  35.5090000 104.7210000
  72.0650000  35.5460000 103.7460000  74.6340000  38.3760000 105.6760000
  74.0740000  39.2810000 105.7900000  75.8870000  38.3930000 105.7900000
  46.7020000  79.4420000 109.2780000  46.2390000  80.3110000 108.3920000
  47.1420000  80.8680000 107.2880000  48.4610000  80.5150000 107.2990000
  49.0170000  79.5720000 108.4090000  48.1790000  79.0550000 109.3520000
  45.5270000  78.9430000 110.1050000  44.4220000  79.5420000 109.6010000
  46.7530000  81.5200000 106.5330000  49.1190000  80.8910000 106.5430000
  50.0580000  79.3250000 108.4280000  48.5420000  78.3970000 110.1140000
  43.4140000  79.2770000 109.8480000  44.8120000  80.6180000 108.6470000
  44.7200000  81.5140000 109.0800000  45.5810000  77.9360000 111.2670000
  44.6800000  77.6510000 111.7710000  46.6830000  77.4460000 111.6260000
  80.5080000  85.2150000 108.9760000  81.6810000  84.7860000 109.4160000
  82.0140000  83.2910000 109.4470000  81.0320000  82.4090000 109.0950000
  79.6210000  82.9230000 108.6780000  79.3680000  84.2610000 108.6150000
  80.5630000  86.7320000 108.8910000  81.8170000  87.0910000 109.2590000
  82.9830000  82.9480000 109.7400000  81.2320000  81.3580000 109.1110000
  78.8490000  82.2230000 108.4340000  78.4090000  84.6300000 108.3190000
  82.2330000  88.0710000 109.1440000  82.5350000  85.9210000 109.8370000
  82.5600000  85.9880000 110.8340000  79.4280000  87.6730000 108.4490000
  79.5900000  88.7300000 108.4200000  78.3090000  87.1990000 108.1210000
  70.7180000  74.3890000 102.1700000  71.7740000  74.8380000 102.8320000
  71.9480000  76.3330000 103.1190000  71.0310000  77.1970000 102.5930000
  69.8490000  76.6650000 101.7290000  69.6940000  75.3250000 101.5280000
  70.7440000  72.8690000 102.2210000  71.8220000  72.5290000 102.9670000
  72.7660000  76.6900000 103.7090000  71.1270000  78.2470000 102.7720000
  69.1530000  77.3520000 101.2950000  68.8810000  74.9420000 100.9480000
  72.0270000  71.5440000 103.3340000  72.6760000  73.7240000 103.2080000
  73.4760000  73.7050000 102.6070000  69.7290000  71.9090000 101.5750000
  69.8460000  70.8510000 101.6880000  68.7610000  72.3670000 100.9140000
  56.1870000  43.3500000 100.9350000  56.6570000  42.1510000 100.6240000
  58.1590000  41.9150000 100.4380000  58.9910000  42.9950000 100.5100000
  58.4150000  44.4190000 100.7750000  57.0780000  44.5920000 100.9820000
  54.7040000  43.2100000 101.2350000  54.4110000  41.8930000 101.1160000
  58.5450000  40.9350000 100.2510000  60.0440000  42.8640000 100.3810000
  59.0710000  45.2640000 100.8000000  56.6690000  45.5610000 101.1770000
  53.4920000  41.4390000 101.4270000  55.5550000  41.1680000 100.4980000
  55.3650000  40.9780000  99.5350000  53.7320000  44.3390000 101.6250000
  52.7050000  44.1160000 101.8240000  54.1460000  45.5250000 101.7100000
  54.1860000  36.0570000 113.0620000  55.1860000  36.2700000 113.9040000
  56.5680000  36.6920000 113.3980000  56.7660000  36.7530000 112.0480000
  55.6090000  36.4000000 111.0650000  54.3760000  36.0720000 111.5440000
  52.9200000  35.8460000 113.8770000  53.2730000  35.9970000 115.1770000
  57.3580000  36.9260000 114.0810000  57.7210000  37.0400000 111.6640000
  55.7820000  36.4200000 110.0090000  53.5680000  35.8390000 110.8830000
  52.5840000  36.0780000 115.9930000  54.7550000  36.0410000 115.3040000
  55.1010000  35.1630000 115.6360000  51.5120000  35.5480000 113.3320000
  50.6910000  35.4290000 114.0080000  51.3250000  35.4450000 112.0920000
  85.3630000  80.3530000 116.4570000  86.5960000  79.9430000 116.7150000
  86.8890000  78.4720000 117.0240000  85.8320000  77.6130000 117.1160000
  84.3750000  78.1290000 116.9120000  84.1480000  79.4350000 116.5930000
  85.4350000  81.8040000 116.0070000  86.7480000  82.1360000 115.9920000
  87.8920000  78.1280000 117.1680000  86.0040000  76.5800000 117.3340000
  83.5510000  77.4550000 117.0170000  83.1550000  79.8020000 116.4380000
  87.1500000  83.0300000 115.5610000  87.5520000  81.0730000 116.6560000
  87.8100000  81.3600000 117.5790000  84.2510000  82.7070000 115.6170000
  84.4280000  83.7150000 115.3040000  83.0750000  82.2610000 115.6670000
  36.6050000  56.6320000 116.8500000  35.5740000  56.6150000 117.6810000
  34.9180000  57.9160000 118.1530000  35.4840000  59.0960000 117.7650000
  36.7590000  59.1040000 116.8690000  37.2950000  57.9300000 116.4270000
  36.8940000  55.2000000 116.4290000  35.9580000  54.4280000 117.0300000
  34.0450000  57.9010000 118.7720000  35.0510000  60.0220000 118.0810000
  37.2140000  60.0330000 116.5960000  38.1630000  57.9180000 115.8020000
  35.7790000  53.3960000 116.8060000  35.2080000  55.2240000 118.0400000
  35.5300000  55.0050000 118.9610000  38.0140000  54.7260000 115.4850000
  38.1130000  53.6860000 115.2530000  38.8130000  55.5610000 114.9860000
  46.6320000  36.7690000 118.1710000  47.4270000  37.6770000 117.6230000
  46.8750000  39.0220000 117.1410000  45.5260000  39.2220000 117.2080000
  44.5880000  38.1060000 117.7600000  45.1130000  36.9360000 118.2250000
  47.5030000  35.6460000 118.7110000  48.7860000  36.0070000 118.4700000
  47.5250000  39.7800000 116.7580000  45.1090000  40.1490000 116.8760000
  43.5300000  38.2600000 117.7810000  44.4850000  36.1650000 118.6190000
  49.6480000  35.5160000 118.8760000  48.8250000  37.1890000 117.5660000
  49.0580000  36.9060000 116.6350000  47.0220000  34.3650000 119.4160000
  47.7340000  33.6470000 119.7640000  45.7910000  34.1630000 119.5840000
  43.0620000  44.0310000 118.2810000  42.0300000  44.7220000 117.8200000
  40.7060000  44.0300000 117.4810000  40.6490000  42.6700000 117.5800000
  41.9030000  41.8580000 118.0250000  43.0550000  42.5040000 118.3640000
  44.1410000  45.0190000 118.6970000  43.6310000  46.2550000 118.4820000
  39.8520000  44.5960000 117.1710000  39.7400000  42.1570000 117.3460000
  41.8590000  40.7900000 118.0700000  43.9210000  41.9630000 118.6840000
  44.0700000  47.1680000 118.8290000  42.3670000  46.1600000 117.7010000
  42.5310000  46.4020000 116.7450000  45.5270000  44.6800000 119.2730000
  46.2020000  45.4660000 119.5410000  45.8680000  43.4790000 119.4310000
  56.0890000  66.8430000 117.3000000  55.7410000  67.5740000 116.2510000
  54.6190000  67.1210000 115.3120000  54.0520000  65.8990000 115.5330000
  54.5420000  65.0030000 116.7100000  55.5100000  65.4510000 117.5580000
  57.0810000  67.6480000 118.1250000  57.2140000  68.8450000 117.5040000
  54.2940000  67.7410000 114.5020000  53.2690000  65.5530000 114.8920000
  54.1120000  64.0330000 116.8580000  55.8490000  64.8540000 118.3780000
  57.7070000  69.7000000 117.9200000  56.5680000  68.8010000 116.1630000
  57.2600000  68.7040000 115.4480000  57.7750000  67.2010000 119.4250000
  58.4500000  67.8640000 119.9250000  57.5480000  66.0580000 119.8990000
  52.1510000  43.0920000 111.2530000  52.0540000  43.4780000 112.5170000
  52.0490000  44.9640000 112.8900000  52.2400000  45.8760000 111.8930000
  52.4560000  45.4050000 110.4230000  52.4100000  44.0780000 110.1130000
  51.9340000  41.5880000 111.2030000  51.6760000  41.1960000 112.4740000
  51.9060000  45.2770000 113.9030000  52.2460000  46.9210000 112.1220000
  52.6350000  46.1260000 109.6520000  52.5430000  43.7390000 109.1070000
  51.3140000  40.2280000 112.7550000  51.9630000  42.3080000 113.4210000
  52.8370000  42.1540000 113.8820000  51.9720000  40.6940000 109.9510000
  51.7920000  39.6420000 110.0390000  52.2140000  41.1980000 108.8230000
  46.0420000  61.1660000 118.8580000  45.2220000  60.4510000 119.6140000
  45.5470000  58.9980000 119.9760000  46.6600000  58.4330000 119.4220000
  47.5620000  59.2540000 118.4510000  47.2730000  60.5600000 118.1830000
  45.5390000  62.6010000 118.8460000  44.4510000  62.6320000 119.6530000
  44.9190000  58.4410000 120.6390000  46.9120000  57.4200000 119.6520000
  48.4150000  58.7940000 117.9980000  47.8890000  61.1400000 117.5290000
  43.9660000  63.5240000 119.9920000  44.0350000  61.2470000 120.0070000
  43.2390000  60.9760000 119.4660000  46.1590000  63.7880000 118.0870000
  45.7190000  64.7600000 118.1640000  47.1840000  63.6160000 117.3770000
  76.4320000  66.8430000 116.6950000  76.7790000  68.1160000 116.5730000
  78.0440000  68.6580000 117.2460000  78.7550000  67.8130000 118.0490000
  78.2800000  66.3450000 118.2670000  77.1750000  65.8770000 117.6190000
  75.2570000  66.5840000 115.7660000  75.0180000  67.7490000 115.1170000
  78.3580000  69.6690000 117.0950000  79.6400000  68.1630000 118.5360000
  78.8260000  65.6990000 118.9230000  76.8430000  64.8680000 117.7480000
  74.3680000  67.8580000 114.2730000  75.7980000  68.8530000 115.7420000
  75.2040000  69.4140000 116.3180000  74.5050000  65.2540000 115.5810000
  73.6940000  65.1910000 114.8850000  74.8430000  64.2410000 116.2470000
  37.5310000  82.5480000 103.7660000  38.5560000  82.5740000 104.6050000
  39.9250000  82.0230000 104.1960000  40.0350000  81.4190000 102.9760000
  38.7950000  81.3020000 102.0390000  37.5990000  81.8440000 102.4100000
  36.3900000  83.3340000 104.3930000  36.8570000  83.8130000 105.5710000
  40.7690000  82.1020000 104.8480000  40.9760000  81.0200000 102.6630000
  38.8820000  80.8010000 101.0980000  36.7420000  81.7830000 101.7740000
  36.3600000  84.5450000 106.1740000  38.1650000  83.1810000 105.8990000
  38.0420000  82.4730000 106.5940000  34.9900000  83.5610000 103.7940000
  34.2690000  84.1450000 104.3270000  34.6940000  83.0620000 102.6780000
  55.8260000  63.9270000 102.5900000  56.1840000  63.2030000 101.5400000
  57.6310000  62.7370000 101.3580000  58.5610000  63.1670000 102.2610000
  58.1470000  64.1040000 103.4360000  56.8420000  64.4650000 103.5990000
  54.3120000  64.0590000 102.5770000  53.8740000  63.3460000 101.5120000
  57.9070000  62.0980000 100.5460000  59.5810000  62.8620000 102.1600000
  58.8880000  64.4610000 104.1210000  56.5390000  65.0980000 104.4070000
  52.8510000  63.0970000 101.3190000  55.0240000  62.9530000 100.6520000
  55.0700000  63.5410000  99.8440000  53.4450000  64.8280000 103.5910000
  52.3810000  64.8410000 103.4830000  53.9880000  65.4420000 104.5460000
  87.1120000  81.5830000 103.6330000  86.0860000  82.0420000 102.9330000
  86.0190000  83.5090000 102.4980000  87.0030000  84.3510000 102.9320000
  88.1520000  83.8200000 103.8420000  88.2100000  82.4990000 104.1750000
  86.9740000  80.0720000 103.7350000  85.8650000  79.7400000 103.0310000
  85.2230000  83.8650000 101.8780000  86.9830000  85.3820000 102.6490000
  88.9020000  84.4930000 104.2020000  88.9980000  82.1170000 104.7880000
  85.5840000  78.7420000 102.7640000  85.0990000  80.9660000 102.6740000
  84.3070000  81.0670000 103.2760000  87.9220000  79.1080000 104.4710000
  87.7250000  78.0560000 104.4640000  88.9280000  79.5560000 105.0790000
  47.5170000  73.2070000 103.5400000  48.6680000  73.1740000 104.1950000
  49.5720000  74.4090000 104.2670000  49.2020000  75.5160000 103.5590000
  47.8960000  75.5090000 102.7080000  47.0870000  74.4110000 102.7000000
  46.7800000  71.9070000 103.8180000  47.5570000  71.2020000 104.6750000
  50.4700000  74.4020000 104.8490000  49.8130000  76.3930000 103.5850000
  47.6290000  76.3700000 102.1320000  46.1810000  74.3940000 102.1310000
  47.2480000  70.3200000 105.1980000  48.8990000  71.8370000 104.7910000
  49.5710000  71.3270000 104.2540000  45.4090000  71.4870000 103.2580000
  44.9840000  70.5460000 103.5350000  44.7880000  72.2520000 102.4740000
  36.3220000  64.1370000 101.5750000  35.0470000  64.1180000 101.2190000
  34.3550000  65.3790000 100.6920000  35.0650000  66.5450000 100.6880000
  36.5350000  66.5760000 101.2060000  37.1400000  65.4280000 101.6260000
  36.7520000  62.7070000 101.8620000  35.6760000  61.9250000 101.6060000
  33.3430000  65.3490000 100.3440000  34.6090000  67.4430000 100.3300000
  37.0740000  67.5000000 101.2270000  38.1510000  65.4300000 101.9730000
  35.6960000  60.8560000 101.5470000  34.4650000  62.7680000 101.4110000
  33.8930000  62.7480000 102.2310000  38.1430000  62.2390000 102.3260000
  38.3310000  61.1980000 102.4870000  39.0600000  63.0800000 102.5160000
  66.1910000  60.6750000 114.5370000  67.3900000  61.1540000 114.2400000
  68.6200000  60.2420000 114.2120000  68.4620000  58.9400000 114.5920000
  67.0650000  58.4130000 115.0390000  65.9780000  59.2360000 115.0100000
  65.1710000  61.7750000 114.2920000  65.8610000  62.8380000 113.8140000
  69.5760000  60.6150000 113.9090000  69.3020000  58.2790000 114.5870000
  66.9560000  57.3990000 115.3650000  65.0100000  58.8870000 115.3020000
  65.4180000  63.7130000 113.3830000  67.3240000  62.6090000 113.9660000
  67.6760000  63.1270000 114.7460000  63.6500000  61.6870000 114.5160000
  63.0280000  62.5300000 114.2950000  63.1380000  60.6260000 114.9570000
  71.6980000  78.5160000 106.4510000  72.4830000  79.4700000 106.9290000
  73.8170000  79.1320000 107.6020000  74.1300000  77.8140000 107.7780000
  73.1500000  76.7000000 107.3030000  71.9910000  77.0300000 106.6650000
  70.5650000  79.1790000 105.6850000  70.7970000  80.5130000 105.7360000
  74.4810000  79.9040000 107.9300000  75.0520000  77.5460000 108.2480000
  73.3890000  75.6700000 107.4730000  71.3130000  76.2770000 106.3230000
  70.2790000  81.2480000 105.1530000  71.8820000  80.8070000 106.7120000
  71.4950000  81.1580000 107.5650000  69.3990000  78.4730000 104.9700000
  68.6610000  79.0490000 104.4520000  69.3120000  77.2170000 104.9950000
  36.7360000  59.7220000 111.9820000  37.6940000  58.8070000 112.0070000
  39.1420000  59.1890000 112.3300000  39.4330000  60.5120000 112.5000000
  38.3150000  61.5900000 112.3670000  37.0260000  61.2160000 112.1240000
  35.4050000  59.0040000 111.8260000  35.6840000  57.6780000 111.8120000
  39.9040000  58.4430000 112.4140000  40.4350000  60.8110000 112.7230000
  38.5580000  62.6270000 112.4710000  36.2450000  61.9430000 112.0410000
  34.9540000  56.8980000 111.8850000  37.1520000  57.4650000 111.6890000
  37.3870000  57.2060000 110.7520000  34.0130000  59.6550000 111.7290000
  33.1420000  59.0420000 111.6310000  33.8990000  60.9080000 111.7670000
  71.8500000  66.5680000 106.3030000  70.8160000  66.5480000 107.1310000
  69.7510000  65.4510000 107.0380000  69.8480000  64.5480000 106.0180000
  71.0130000  64.6450000 104.9870000  71.9720000  65.6040000 105.1220000
  72.8090000  67.6500000 106.7740000  72.2720000  68.1730000 107.9030000
  68.9520000  65.3970000 107.7470000  69.1180000  63.7730000 105.9230000
  71.0640000  63.9520000 104.1730000  72.7850000  65.6760000 104.4300000
  72.7800000  68.8350000 108.5730000  70.8760000  67.6850000 108.0790000
  70.2250000  68.3960000 107.8130000  74.1400000  68.0520000 106.1140000
  74.7390000  68.8260000 106.5460000  74.5250000  67.4700000 105.0660000
  81.8450000  34.0890000 106.0800000  82.3340000  32.9370000 105.6460000
  83.7130000  32.8630000 104.9850000  84.3850000  34.0330000 104.7720000
  83.7540000  35.3940000 105.1940000  82.5440000  35.4250000 105.8220000
  80.5660000  33.7990000 106.8480000  80.4140000  32.4520000 106.8440000
  84.1360000  31.9250000 104.6930000  85.3490000  34.0150000 104.3080000
  84.2740000  36.3080000 104.9950000  82.1030000  36.3500000 106.1290000
  79.7070000  31.9130000 107.4410000  81.3800000  31.8310000 105.8960000
  80.9160000  31.5730000 105.0490000  79.6400000  34.8290000 107.5190000
  78.7670000  34.5010000 108.0440000  79.9100000  36.0560000 107.4520000
  86.1230000  58.6280000 113.1230000  85.0960000  59.4400000 112.9200000
  85.3110000  60.9330000 112.6550000  86.5850000  61.4200000 112.7260000
  87.7740000  60.4720000 113.0680000  87.5590000  59.1390000 113.2530000
  85.5950000  57.2030000 113.1600000  84.2630000  57.2820000 112.9280000
  84.4880000  61.5780000 112.4280000  86.7670000  62.4590000 112.5510000
  88.7650000  60.8680000 113.1510000  88.3650000  58.4730000 113.4760000
  83.6260000  56.4460000 112.7220000  83.8140000  58.7000000 112.9930000
  83.3570000  58.8790000 113.8640000  86.4170000  55.9220000 113.3900000
  85.9330000  54.9670000 113.3840000  87.6580000  55.9960000 113.5830000
  46.0460000  60.3780000 101.6370000  46.8520000  61.3800000 101.9580000
  48.3410000  61.1410000 102.2220000  48.7970000  59.8540000 102.2090000
  47.8170000  58.6730000 101.9310000  46.5050000  58.9190000 101.6540000
  44.6960000  60.9640000 101.2540000  44.8250000  62.3100000 101.3410000
  49.0050000  61.9580000 102.4170000  49.8310000  59.6540000 102.3940000
  48.1770000  57.6650000 101.9530000  45.8230000  58.1220000 101.4490000
  44.1100000  63.0190000 100.9750000  46.1070000  62.6600000 102.0100000
  45.9410000  62.9280000 102.9590000  43.4410000  60.1830000 100.8270000
  42.5450000  60.7090000 100.5690000  43.4670000  58.9260000 100.7800000
  84.6350000  39.1360000 100.4320000  85.9580000  39.0850000 100.3970000
  86.6870000  37.8400000  99.8850000  85.9360000  36.7490000  99.5510000
  84.3850000  36.7850000  99.6930000  83.7590000  37.9240000 100.1090000
  84.2270000  40.5530000 100.8010000  85.3750000  41.2630000 100.9190000
  87.7530000  37.8220000  99.7960000  86.4160000  35.8630000  99.1930000
  83.8070000  35.9160000  99.4580000  82.6950000  37.9690000 100.2000000
  85.4310000  42.3290000 101.0030000  86.5480000  40.3460000 100.9050000
  86.8990000  40.2180000 101.8330000  82.7930000  41.0830000 100.9780000
  82.6300000  42.1100000 101.2300000  81.8120000  40.3090000 100.8260000
  52.4330000  63.6120000 109.8170000  52.4150000  64.8730000 109.4120000
  51.1470000  65.4920000 108.8160000  50.0640000  64.6820000 108.6300000
  50.1320000  63.1730000 109.0160000  51.2590000  62.6600000 109.5870000
  53.7560000  63.3640000 110.5250000  54.4200000  64.5460000 110.5200000
  51.1120000  66.5280000 108.5490000  49.1660000  65.0830000 108.2120000
  49.2890000  62.5380000 108.8380000  51.3170000  61.6300000 109.8680000
  55.3050000  64.7530000 111.0860000  53.7350000  65.5150000 109.6210000
  54.2270000  65.5910000 108.7550000  54.2340000  62.0410000 111.1480000
  55.1870000  61.9910000 111.6330000  53.5040000  61.0170000 111.0890000
  76.3880000  72.5240000  58.1410000  75.9010000  72.5070000  58.9950000
  77.2910000  72.1550000  58.2710000  76.4560000  73.4510000  57.8210000
  77.6950000  74.8450000  68.0610000  77.2560000  75.3300000  67.3280000
  78.6700000  74.8770000  67.9380000  77.3950000  73.9080000  68.0600000
  73.4580000  82.0200000  80.4500000  72.9270000  81.2040000  80.3090000
  74.4150000  81.7960000  80.4320000  73.2290000  82.4140000  81.3220000
  64.1520000  49.9290000  74.7080000  64.5850000  49.7020000  73.8540000
  64.8270000  50.2670000  75.3380000  63.7270000  49.1250000  75.0830000
  88.1310000  48.8340000  56.4260000  87.4090000  49.4240000  56.1150000
  89.0000000  49.2260000  56.1880000  88.0400000  47.9520000  56.0000000
  42.3730000  31.5540000  56.5560000  41.6510000  31.9250000  56.0010000
  42.9630000  30.9990000  55.9980000  41.9860000  31.0030000  57.2720000
  75.5670000  87.9160000  58.1640000  74.7900000  87.7510000  57.5860000
  76.2050000  87.1730000  58.0770000  75.2700000  87.9860000  59.1000000
  56.9620000  63.2060000  75.5850000  57.9400000  63.2590000  75.6680000
  56.5860000  64.1140000  75.5470000  56.5920000  62.7310000  76.3640000
  37.8530000  39.5040000  92.1340000  38.6850000  39.8360000  92.5390000
  37.1310000  40.1540000  92.2860000  37.6100000  38.6430000  92.5440000
  47.4290000  67.8280000  90.5250000  47.7300000  66.9900000  90.1100000
  47.9950000  68.5700000  90.2150000  47.4960000  67.7520000  91.5040000
  52.4610000  53.3180000  59.0390000  51.5050000  53.2160000  58.8330000
  52.6800000  52.7980000  59.8450000  52.6640000  54.2670000  59.1970000
  67.6980000  63.0230000  93.6400000  68.0280000  62.4200000  94.3430000
  67.4080000  63.8710000  94.0440000  66.9380000  62.6030000  93.1780000
  80.4210000  46.9110000  66.6590000  79.8460000  47.6840000  66.4630000
  81.3500000  47.2120000  66.7690000  80.3700000  46.2680000  65.9150000
  43.5990000  36.6260000  76.2180000  44.5380000  36.3570000  76.1110000
  43.5570000  37.5570000  76.5310000  43.1620000  36.0390000  76.8760000
  39.1820000  78.2040000  79.8140000  40.0080000  77.7510000  80.0950000
  39.4060000  78.9520000  79.2170000  38.7090000  78.5450000  80.6060000
  56.2080000  33.8740000  62.2120000  56.4450000  33.5630000  61.3100000
  55.2700000  33.6470000  62.4010000  56.3260000  34.8490000  62.2630000
  56.8920000  73.8620000  86.5790000  55.9650000  73.5880000  86.4040000
  57.5080000  73.2020000  86.1890000  57.0400000  73.9150000  87.5500000
  56.9060000  66.3890000  58.5600000  56.7720000  67.2810000  58.9520000
  56.1530000  66.1760000  57.9650000  56.9560000  65.7200000  59.2790000
  43.5690000  70.8580000  57.7760000  42.5960000  70.8580000  57.9120000
  43.8920000  69.9310000  57.7090000  44.0070000  71.3030000  58.5370000
  43.1840000  82.5330000  89.3600000  43.9310000  81.8940000  89.3570000
  43.5260000  83.4370000  89.1810000  42.7430000  82.5170000  90.2390000
  44.1580000  39.8210000  71.4980000  43.6980000  38.9590000  71.6000000
  45.1310000  39.6790000  71.5170000  43.9000000  40.4190000  72.2350000
  32.0820000  60.3640000  80.9930000  31.1870000  60.4540000  81.3900000
  32.5130000  59.5500000  81.3370000  32.6260000  61.1490000  81.2300000
  86.2460000  53.4590000  91.9680000  85.3940000  53.4440000  92.4570000
  86.1430000  52.9800000  91.1150000  86.9420000  53.0230000  92.5070000
  86.2490000  65.9520000  67.2570000  86.1960000  64.9810000  67.1150000
  85.3750000  66.3600000  67.0620000  86.9300000  66.3340000  66.6590000
  61.4050000  34.5670000  75.9840000  60.6550000  35.2010000  76.0310000
  61.1860000  33.7610000  76.5050000  62.2140000  34.9870000  76.3530000
  67.4580000  58.2810000  76.4200000  66.4770000  58.2150000  76.4270000
  67.7230000  59.2270000  76.4080000  67.8110000  57.8310000  75.6190000
  31.2570000  39.2690000  64.9520000  31.0010000  39.1760000  64.0080000
  32.2140000  39.4860000  65.0130000  31.0820000  38.4240000  65.4240000
  49.0690000  46.3070000  60.4970000  49.6500000  45.8470000  59.8510000
  49.0310000  47.2650000  60.2790000  49.4310000  46.1910000  61.4040000
  79.6000000  55.0360000  84.7140000  79.7180000  55.6580000  85.4660000
  78.7520000  55.2300000  84.2570000  79.5870000  54.1120000  85.0520000
  73.0420000  77.1920000  91.5940000  73.7170000  77.2200000  90.8800000
  72.9680000  78.0790000  92.0110000  73.3090000  76.5310000  92.2720000
  74.9810000  83.0260000  94.8930000  75.1440000  82.1450000  94.4880000
  74.7910000  82.9160000  95.8510000  74.2110000  83.4520000  94.4520000
  36.6700000  37.4170000  61.4270000  37.1330000  36.9160000  62.1350000
  36.9090000  38.3680000  61.4880000  35.6980000  37.3140000  61.5350000
  40.4660000  62.6460000  91.0400000  39.6180000  62.9010000  90.6140000
  40.6310000  61.6870000  90.8940000  40.4160000  62.8260000  92.0060000
  81.8710000  50.6680000  81.8400000  82.5590000  51.3710000  81.8260000
  82.2970000  49.7910000  81.7160000  81.2270000  50.8260000  81.1140000
  78.7490000  49.0560000  73.9110000  78.1030000  48.4070000  73.5540000
  79.1970000  48.6750000  74.6980000  78.2780000  49.8810000  74.1680000
  68.3810000  58.9000000  87.7020000  67.6000000  59.3480000  88.0980000
  68.7420000  58.2460000  88.3410000  69.0710000  59.5690000  87.4920000
  60.5020000  70.5180000  78.3020000  61.2800000  70.9000000  77.8390000
  60.3000000  71.0520000  79.1020000  60.7010000  69.5910000  78.5670000
  50.0270000  85.4040000  63.9350000  50.9340000  85.0270000  63.9660000
  49.5310000  85.1330000  64.7400000  49.5600000  85.0710000  63.1350000
  48.9730000  33.0200000  78.4730000  49.5290000  33.4150000  77.7660000
  48.0330000  33.0080000  78.1830000  49.0560000  33.5560000  79.2940000
  47.3360000  50.7790000  68.4800000  47.2570000  49.9390000  67.9760000
  48.2730000  50.9140000  68.7480000  46.7690000  50.7350000  69.2830000
  43.6950000  74.3870000  69.5270000  43.7490000  75.2970000  69.1590000
  44.5930000  74.0880000  69.7950000  43.3380000  73.7780000  68.8420000
  42.6210000  61.1820000  71.0620000  42.6310000  60.3560000  70.5290000
  43.2850000  61.1150000  71.7840000  41.7260000  61.3110000  71.4500000
  64.5390000  52.3970000  73.2660000  63.5730000  52.5750000  73.2330000
  65.0130000  53.2110000  73.5480000  64.8540000  52.1260000  72.3740000
  42.4590000  78.3590000  64.0200000  41.6120000  77.9840000  64.3480000
  42.2880000  79.2260000  63.5890000  42.8600000  77.7420000  63.3670000
  67.0120000  89.0000000  81.6940000  66.7350000  88.8610000  82.6260000
  66.3040000  88.6830000  81.0900000  67.8400000  88.4990000  81.5200000
  58.9530000  55.4660000  72.9920000  59.1700000  54.5460000  72.7250000
  58.0070000  55.6510000  72.7950000  59.5210000  56.0960000  72.4940000
  83.1490000  72.1020000  66.8230000  83.0540000  72.1160000  67.8020000
  83.0700000  73.0170000  66.4730000  82.4430000  71.5390000  66.4330000
  76.7590000  34.2530000  86.2840000  75.9460000  33.7010000  86.2890000
  76.5100000  35.2030000  86.3320000  77.2640000  34.0870000  85.4560000
  85.6050000  84.4110000  95.9100000  86.1420000  83.6050000  95.7410000
  86.1660000  85.0940000  96.3410000  84.8510000  84.1850000  96.5000000
  65.7740000  84.3250000  79.6000000  66.2220000  83.8640000  80.3440000
  64.8420000  84.0190000  79.5380000  66.2420000  84.1220000  78.7590000
  56.3580000  45.8460000  91.0020000  55.8110000  45.8230000  90.1850000
  55.7950000  45.6380000  91.7800000  56.7480000  46.7430000  91.1100000
  78.0820000  44.0500000  66.5260000  78.1400000  43.5160000  67.3500000
  78.6490000  43.6450000  65.8330000  78.3880000  44.9670000  66.7070000
  64.8060000  84.8110000  65.5190000  64.9130000  84.1270000  64.8210000
  64.8870000  84.3910000  66.4040000  63.9200000  85.2310000  65.4340000
  72.1940000  88.4600000  71.4980000  72.7420000  89.0000000  72.1100000
  72.7050000  87.6720000  71.2090000  71.9510000  89.0000000  70.7130000
  54.4210000  72.2720000  69.0900000  54.0680000  71.5370000  68.5400000
  55.1420000  72.7290000  68.6020000  54.7730000  71.9100000  69.9340000
  71.9150000  56.2550000  56.3240000  71.9140000  56.2990000  57.3060000
  70.9940000  56.1360000  56.0000000  72.4670000  55.4950000  56.0300000
  58.8990000  54.4330000  77.1460000  59.1430000  53.4960000  76.9750000
  59.7140000  54.9810000  77.1950000  58.4110000  54.4940000  77.9980000
  67.7630000  40.7970000  90.2840000  67.6010000  39.8640000  90.0180000
  68.4790000  40.8250000  90.9580000  66.9390000  41.1770000  90.6640000
  60.5480000  66.2330000  91.4000000  60.9410000  65.4340000  91.8160000
  59.7930000  65.9670000  90.8290000  61.2280000  66.6870000  90.8540000
  54.1060000  45.1550000  66.3190000  53.7160000  45.0290000  67.2120000
  53.6600000  45.9080000  65.8700000  53.9800000  44.3370000  65.7870000
  78.3090000  88.3210000  84.5740000  78.6660000  87.7770000  83.8370000
  78.9720000  89.0000000  84.8310000  78.1160000  87.7420000  85.3450000
  85.1380000  86.4730000  58.7600000  84.9120000  87.0790000  58.0200000
  84.8150000  86.8550000  59.6070000  86.1140000  86.3570000  58.8030000
  62.9290000  39.0460000  73.9340000  62.1250000  38.4840000  74.0060000
  63.3420000  38.9150000  73.0520000  63.5690000  38.7950000  74.6370000
  82.0600000  84.9530000  74.8970000  82.8570000  84.4330000  75.1430000
  81.4010000  84.9080000  75.6250000  81.6670000  84.5810000  74.0750000
  41.4340000  78.2920000  82.6980000  41.1640000  77.9870000  83.5920000
  42.3980000  78.1410000  82.5760000  41.2380000  79.2520000  82.6050000
  50.0990000  80.2720000  62.5440000  49.1730000  80.0740000  62.2790000
  50.5050000  79.4690000  62.9420000  50.1030000  81.0030000  63.2020000
  43.5760000  48.0240000  79.1730000  43.3350000  48.9570000  79.3690000
  44.0640000  47.9840000  78.3200000  42.7580000  47.4810000  79.1100000
  66.4470000  67.2060000  70.2530000  66.3290000  66.2490000  70.0650000
  67.0510000  67.3180000  71.0210000  65.5740000  67.6090000  70.4610000
  78.3120000  64.1830000  67.6050000  77.7660000  63.3660000  67.6220000
  79.2590000  63.9430000  67.4960000  78.1930000  64.6750000  68.4490000
  66.8470000  40.8400000  59.3700000  67.6940000  40.9570000  59.8560000
  67.0360000  40.6290000  58.4290000  66.3220000  41.6700000  59.4220000
  48.9100000  40.1980000  92.0370000  49.1010000  39.2350000  91.9960000
  47.9370000  40.3400000  92.0460000  49.2980000  40.6440000  91.2510000
  80.9890000  45.3200000  59.3800000  80.1830000  45.1830000  58.8350000
  80.8010000  45.0700000  60.3120000  81.2550000  46.2660000  59.3410000
  74.2240000  58.9650000  89.2950000  74.5810000  59.8610000  89.4850000
  73.6480000  58.6770000  90.0380000  74.9680000  58.3300000  89.1920000
  61.3570000  33.8180000  88.4860000  61.4950000  34.7900000  88.4460000
  60.4450000  33.6280000  88.8010000  62.0080000  33.4200000  89.1070000
  55.2220000  66.4180000  95.7690000  54.6900000  66.2960000  94.9510000
  55.1830000  65.5980000  96.3110000  54.8590000  67.1710000  96.2870000
  58.0100000  51.6050000  57.4620000  57.5070000  51.2560000  58.2310000
  58.6920000  52.2390000  57.7760000  57.3930000  52.0630000  56.8480000
  45.1480000  79.1710000  66.2010000  45.9860000  79.0390000  65.7040000
  44.6980000  79.9830000  65.8770000  45.3470000  79.2660000  67.1600000
  66.4790000  42.3580000  93.4210000  67.2980000  42.2700000  92.8840000
  66.2890000  43.3110000  93.5730000  66.6030000  41.9060000  94.2850000
  53.1830000  78.6710000  73.5240000  52.5690000  77.9560000  73.8040000
  53.9990000  78.2720000  73.1470000  53.4180000  79.2250000  74.3020000
  70.3710000  64.8730000  93.4570000  71.3040000  64.6610000  93.2300000
  70.2950000  65.8290000  93.6730000  70.0940000  64.3380000  94.2350000
  54.5010000  84.2640000  58.7690000  54.7070000  85.1850000  58.4950000
  55.1860000  83.9480000  59.4000000  54.4920000  83.6810000  57.9770000
  52.6150000  65.5060000  93.6430000  51.7490000  65.7730000  93.2620000
  53.3210000  65.6240000  92.9690000  52.5760000  64.5620000  93.9160000
  60.7650000  39.3820000  62.4430000  61.2340000  39.9670000  63.0790000
  60.6060000  38.5050000  62.8590000  61.3160000  39.2660000  61.6360000
  87.5500000  33.8750000  63.8540000  86.7000000  33.9190000  64.3440000
  87.4530000  33.2720000  63.0820000  88.2550000  33.5330000  64.4490000
  81.5560000  51.1880000  62.7590000  81.2130000  50.2670000  62.7970000
  81.6950000  51.4470000  61.8200000  82.4100000  51.2390000  63.2440000
  76.2740000  50.7230000  77.4750000  75.8590000  51.4680000  76.9860000
  77.0090000  50.3480000  76.9400000  75.6020000  50.0250000  77.6430000
  53.7810000  72.4000000  63.8150000  54.4970000  72.0670000  64.4000000
  54.1130000  73.1650000  63.2930000  53.0150000  72.6850000  64.3620000
  51.2560000  52.4130000  78.2130000  51.1820000  53.0170000  77.4400000
  51.4830000  51.5090000  77.9020000  50.3980000  52.3900000  78.6930000
  80.0670000  35.4640000  82.3980000  80.9140000  35.9620000  82.3620000
  79.3190000  36.0960000  82.4940000  80.0790000  34.8520000  83.1680000
  84.4620000  64.5080000  70.3390000  84.4570000  63.7510000  70.9660000
  85.0710000  64.3110000  69.5930000  84.7650000  65.3190000  70.8050000
  43.4980000  41.1080000  56.4200000  43.2530000  40.2540000  56.0000000
  44.3160000  41.4570000  56.0000000  43.6580000  40.9670000  57.3810000
  69.1150000  40.5640000  78.5100000  69.4780000  41.3140000  79.0320000
  68.1360000  40.6420000  78.4610000  69.3550000  39.7150000  78.9450000
  82.4030000  56.3970000 143.4450000  82.5780000  55.9140000 142.6060000
  82.4730000  57.3650000 143.2870000  83.0610000  56.1260000 144.1230000
  63.5660000  47.7310000 134.2400000  63.4900000  47.0620000 134.9570000
  63.9300000  47.3060000 133.4320000  64.1680000  48.4540000 134.5290000
  31.1150000  60.8120000 136.7090000  32.0160000  61.1600000 136.8930000
  31.0000000  59.9450000 137.1580000  31.0000000  60.6970000 135.7390000
  76.3320000  42.1100000 131.4400000  75.6340000  42.7610000 131.6730000
  75.9350000  41.2130000 131.3730000  77.0270000  42.1100000 132.1360000
  84.1460000  32.1930000 154.3440000  83.2830000  32.6620000 154.3510000
  84.7950000  32.7080000 153.8130000  84.0320000  31.3010000 153.9460000
  67.4070000  62.4390000 131.9890000  66.4730000  62.7330000 132.0710000
  67.9940000  63.2250000 131.9260000  67.5080000  61.8890000 131.1790000
  37.3180000  42.8030000 139.3000000  37.5840000  43.7490000 139.3010000
  36.3370000  42.7370000 139.3000000  37.6770000  42.3610000 140.1030000
  46.7970000  86.7710000 149.5720000  46.8470000  85.8090000 149.3780000
  47.1380000  87.2790000 148.8010000  47.3420000  86.9750000 150.3650000
  73.2570000  59.2280000 160.3340000  73.8760000  58.6710000 159.8120000
  72.9060000  58.7070000 161.0910000  72.5120000  59.5170000 159.7610000
  54.3890000  48.7400000 159.3350000  55.3540000  48.5640000 159.2730000
  54.2430000  49.6790000 159.5900000  53.9910000  48.1500000 160.0140000
  50.4940000  61.5100000 139.8260000  50.9070000  60.6210000 139.9100000
  49.5270000  61.4100000 139.6840000  50.8910000  61.9840000 139.0600000
  43.7630000  52.3470000 157.3280000  43.2510000  52.4640000 156.4970000
  44.1530000  51.4450000 157.3490000  43.1650000  52.4640000 158.1000000
  33.7980000  76.5170000 133.8030000  32.9620000  76.1700000 133.4200000
  34.5520000  76.2760000 133.2190000  33.9370000  76.1270000 134.6950000
  74.4200000  52.5920000 161.2140000  74.1410000  53.5040000 161.4490000
  73.7660000  52.1980000 160.5940000  74.4710000  52.0430000 162.0290000
  69.2370000  48.5140000 125.9170000  69.0130000  49.4700000 125.9720000
  68.7000000  48.0910000 125.2110000  69.0440000  48.0820000 126.7800000
  52.4800000  83.6080000 139.7520000  53.2590000  84.0390000 139.3350000
  52.7510000  82.7440000 140.1370000  51.7830000  83.4610000 139.0740000
  54.9790000  76.4160000 161.0230000  54.9700000  75.4340000 161.0730000
  55.8740000  76.7220000 160.7550000  54.7530000  76.7920000 161.9030000
  48.8690000  36.4360000 130.7030000  48.9080000  36.3540000 131.6820000
  48.7690000  37.3830000 130.4570000  48.1020000  35.9250000 130.3610000
  65.4190000  66.3500000 133.1560000  65.8750000  66.4610000 132.2930000
  64.4500000  66.2700000 133.0080000  65.6000000  67.1320000 133.7260000
  75.7740000  39.8080000 125.3530000  75.1090000  40.1190000 124.6990000
  75.3670000  39.7820000 126.2470000  76.5410000  40.4230000 125.3590000
  80.4110000  34.0190000 141.5900000  81.3460000  34.0390000 141.8930000
  80.0730000  34.9390000 141.5100000  79.8660000  33.5250000 142.2420000
  41.6990000  55.9060000 162.0750000  40.8390000  56.3510000 162.2460000
  42.4140000  56.5790000 162.0320000  41.6530000  55.4220000 161.2200000
  86.0710000  70.2440000 147.2860000  85.1460000  69.9190000 147.3470000
  86.4620000  70.2930000 148.1880000  86.0790000  71.1380000 146.8770000
  83.4850000  57.0770000 130.9510000  83.2410000  56.1240000 130.9420000
  82.6720000  57.6220000 131.0410000  83.9420000  57.3060000 130.1110000
  88.6600000  36.6080000 157.7430000  89.0000000  36.4000000 158.6420000
  88.9630000  35.9190000 157.1100000  89.0000000  37.4860000 157.4590000
  57.6210000  80.5070000 137.9400000  57.5730000  80.3170000 136.9760000
  56.9890000  79.9260000 138.4200000  57.3870000  81.4490000 138.1000000
  66.3770000  65.6200000 163.5600000  66.2700000  66.5490000 163.8630000
  67.1600000  65.2190000 164.0000000  66.5060000  65.6060000 162.5850000
  54.9530000  86.1590000 134.0670000  55.5500000  86.2570000 134.8410000
  54.7070000  87.0490000 133.7270000  54.1400000  85.6750000 134.3380000
  49.4500000  67.0530000 144.5880000  49.6820000  67.5770000 145.3860000
  49.9620000  67.3860000 143.8170000  48.4880000  67.1420000 144.4050000
  35.2430000  85.1260000 147.6800000  35.0780000  85.1470000 148.6490000
  36.1270000  85.5130000 147.4900000  34.5500000  85.6480000 147.2170000
  87.4340000  86.2890000 155.6680000  86.9740000  87.0670000 156.0560000
  88.2560000  86.5860000 155.2190000  86.8430000  85.8510000 155.0160000
  47.2360000  57.2860000 159.0960000  47.3590000  56.8500000 158.2230000
  48.0830000  57.2660000 159.5950000  46.5430000  56.8100000 159.6060000
  36.9400000  69.2960000 136.8310000  36.2150000  69.0380000 136.2190000
  36.7080000  69.0230000 137.7470000  37.0640000  70.2710000 136.8000000
  63.2790000  42.6760000 162.4980000  63.2230000  42.6380000 163.4790000
  63.6470000  43.5460000 162.2250000  62.3810000  42.5640000 162.1140000
  88.0510000  39.3030000 129.2420000  87.5080000  38.9440000 128.5050000
  87.7160000  40.1930000 129.4920000  88.9890000  39.3740000 128.9530000
  85.0020000  57.1560000 147.0850000  85.4760000  57.9700000 147.3660000
  85.3850000  56.3780000 147.5490000  85.0980000  57.0390000 146.1130000
  85.4700000  42.7100000 152.0100000  86.2040000  42.1400000 152.3320000
  84.7190000  42.1440000 151.7210000  85.7840000  43.2510000 151.2500000
  46.2440000  33.8120000 150.0360000  46.7610000  33.3990000 150.7630000
  46.0190000  33.1290000 149.3650000  46.7800000  34.5210000 149.6140000
  43.3150000  87.9140000 158.8420000  43.7490000  87.1290000 159.2460000
  42.3960000  87.6810000 158.5800000  43.8210000  88.1950000 158.0470000
  76.5920000  49.7200000 147.2030000  75.9130000  49.0310000 147.3770000
  76.1500000  50.5830000 147.0400000  77.1210000  49.4670000 146.4130000
  42.0720000  87.4030000 153.2050000  42.9970000  87.7200000 153.3120000
  41.9350000  87.1020000 152.2790000  41.4490000  88.1360000 153.4070000
  51.7990000  31.0000000 128.7930000  51.9230000  31.0890000 129.7640000
  52.6750000  31.0170000 128.3470000  51.2490000  31.7460000 128.4630000
  52.8710000  33.0980000 145.1740000  52.5300000  33.3430000 146.0630000
  53.7300000  33.5490000 145.0170000  52.2240000  33.3760000 144.4870000
  56.8640000  65.8040000 137.8010000  56.2350000  66.5090000 137.5320000
  57.0720000  65.2350000 137.0260000  56.4590000  65.2560000 138.5110000
  87.2350000  52.3850000 125.8030000  86.6420000  51.6040000 125.8640000
  87.9370000  52.3190000 126.4890000  86.7130000  53.2060000 125.9470000
  64.2840000  80.6050000 145.6090000  64.6870000  80.5110000 144.7180000
  64.4430000  79.7860000 146.1300000  63.3160000  80.7530000 145.5180000
  39.4250000  47.5500000 133.5780000  40.3190000  47.9560000 133.6180000
  39.5100000  46.5820000 133.4280000  38.9140000  47.9530000 132.8400000
  56.0500000  88.2080000 145.0220000  55.5410000  89.0000000 145.3040000
  55.4280000  87.5120000 144.7120000  56.5720000  87.8660000 145.7830000
  59.4750000  35.9650000 134.6220000  59.2960000  36.8250000 134.1830000
  60.0090000  35.3960000 134.0240000  58.6230000  35.5170000 134.8260000
  62.3080000  82.4170000 125.7510000  62.3720000  81.8960000 124.9200000
  61.4530000  82.9020000 125.7700000  63.0510000  83.0610000 125.7930000
  33.9870000  46.8240000 158.0860000  33.1090000  47.0700000 158.4560000
  34.6340000  46.7210000 158.8190000  34.2940000  47.5310000 157.4740000
  84.5160000  82.3980000 134.9290000  83.8000000  83.0660000 134.8400000
  84.2300000  81.5530000 134.5160000  84.7080000  82.2490000 135.8830000
  76.1450000  73.1450000 140.9740000  76.5480000  73.7620000 140.3240000
  75.7550000  72.3770000 140.5000000  75.4400000  73.6130000 141.4770000
  49.8850000  45.7410000 134.6870000  48.9310000  45.5610000 134.5340000
  50.0050000  46.6830000 134.9410000  50.3900000  45.5560000 133.8630000
  68.8530000  45.2090000 156.2570000  68.1570000  45.6290000 155.7040000
  68.4500000  44.8700000 157.0880000  69.5430000  45.8750000 156.4760000
  74.0140000  73.0610000 159.7110000  73.1200000  72.6740000 159.5780000
  73.9350000  74.0340000 159.8330000  74.5730000  72.8740000 158.9250000
  49.7770000  77.2740000 138.1660000  49.1680000  77.9160000 137.7370000
  50.5350000  77.7570000 138.5640000  50.1090000  76.6380000 137.4940000
  37.8900000  41.4040000 147.0570000  37.3560000  41.5290000 147.8720000
  38.4080000  40.5710000 147.1280000  38.5050000  42.1640000 146.9480000
  76.3870000  33.0590000 133.0580000  75.9810000  33.9440000 133.1910000
  76.0340000  32.4330000 133.7290000  77.3630000  33.1270000 133.1540000
  70.7740000  50.2340000 139.5630000  71.3620000  49.8810000 140.2670000
  71.3200000  50.5690000 138.8170000  70.2290000  50.9680000 139.9270000
  62.5240000  72.2880000 146.0200000  63.2470000  72.8800000 146.3250000
  62.9010000  71.4170000 145.7600000  62.0710000  72.6930000 145.2470000
  71.7500000  55.6630000 134.7620000  72.1590000  55.7010000 133.8690000
  71.2870000  56.5110000 134.9460000  72.4500000  55.5190000 135.4380000
  48.7340000  46.3910000 147.2490000  47.8670000  46.8170000 147.0660000
  48.9080000  46.4050000 148.2170000  49.4460000  46.8810000 146.7800000
  34.9350000  44.3880000 134.6450000  34.9390000  44.9700000 133.8530000
  35.7680000  43.8670000 134.6740000  34.1660000  43.7770000 134.5990000
  37.2590000  66.6000000 129.2470000  36.9130000  65.6960000 129.4190000
  36.6200000  67.2660000 129.5870000  37.3800000  66.7270000 128.2790000
  37.1820000  34.6320000 135.3780000  37.3830000  35.0200000 136.2590000
  37.4580000  35.2590000 134.6730000  36.2150000  34.4640000 135.3070000
  52.4080000  56.5860000 139.7280000  52.2940000  56.1950000 140.6220000
  52.3350000  57.5650000 139.7850000  51.7090000  56.2400000 139.1270000
  48.3340000  63.7490000 161.9980000  47.9730000  62.9190000 161.6140000
  49.2550000  63.5950000 162.3060000  47.7760000  64.0280000 162.7590000
  52.3490000  62.8130000 136.9300000  51.9990000  61.9260000 136.6890000
  52.8820000  62.7420000 137.7530000  51.5980000  63.4310000 137.0780000
  84.9970000  49.0220000 133.3580000  85.9780000  49.0040000 133.2910000
  84.6850000  49.9540000 133.3470000  84.7190000  48.5930000 134.1990000
  48.2460000  87.4980000 157.6960000  48.5020000  88.4150000 157.9420000
  47.2660000  87.4200000 157.6960000  48.6250000  86.8660000 158.3470000
  57.7550000  53.5300000 131.0660000  57.9500000  54.4920000 131.1050000
  56.8200000  53.3740000 131.3280000  58.3520000  53.0490000 131.6820000
  72.0610000  59.6280000 130.3880000  71.3660000  59.0950000 129.9430000
  72.9480000  59.3240000 130.0910000  71.9860000  59.5180000 131.3620000
  40.1130000  49.0880000 127.3130000  39.2990000  49.0550000 127.8630000
  40.4760000  48.1800000 127.2100000  40.7820000  49.6600000 127.7510000
  49.1480000  38.0930000 149.9090000  48.5900000  37.3740000 150.2810000
  49.5350000  38.6210000 150.6430000  48.5960000  38.6770000 149.3420000
  70.9000000  79.6140000 129.1050000  70.5720000  78.7870000 129.5220000
  70.2660000  80.3440000 129.2820000  70.9820000  79.4800000 128.1340000
  37.3820000  35.3440000 149.8870000  37.5920000  34.5870000 150.4780000
  36.4500000  35.2720000 149.5800000  37.9850000  35.3310000 149.1110000
  52.2570000  85.7520000 161.8410000  52.4760000  84.8210000 161.6160000
  52.9640000  86.1270000 162.4130000  51.3980000  85.7800000 162.3210000
  88.1260000  56.5510000 153.0620000  89.0000000  56.1020000 153.0710000
  87.4660000  55.9940000 153.5320000  87.8370000  56.6880000 152.1320000
  84.0780000  72.2050000 160.5040000  84.0200000  71.2350000 160.6490000
  84.5000000  72.3820000 159.6340000  84.6170000  72.6120000 161.2190000
  82.4930000  39.6400000 128.8040000  81.5960000  39.8430000 128.4560000
  82.8110000  38.7930000 128.4180000  82.4540000  39.5590000 129.7840000
  75.9300000  70.1520000 139.3650000  76.9050000  70.1600000 139.2450000
  75.6720000  69.3700000 139.9030000  75.4910000  70.1040000 138.4860000
  44.4500000  39.0430000 128.1820000  45.0870000  39.7700000 128.0070000
  44.1650000  39.0760000 129.1220000  44.8810000  38.1770000 128.0010000
  70.1850000  48.3080000 158.8900000  71.0290000  48.8030000 158.9820000
  69.4390000  48.8710000 159.1950000  70.2230000  47.4900000 159.4370000
  35.3020000  60.0390000 126.5030000  34.9190000  60.1720000 125.6070000
  35.8250000  60.8310000 126.7570000  35.8870000  59.2480000 126.4950000
  82.7430000  70.7490000 128.5760000  81.9210000  70.8130000 129.1110000
  83.4770000  71.2010000 129.0470000  82.6000000  71.1780000 127.7020000
  59.3460000  34.4150000 129.0890000  58.9920000  35.2610000 128.7340000
  59.2420000  33.7070000 128.4140000  58.8500000  34.1680000 129.9020000
  64.5370000  53.6760000 141.8350000  64.2160000  52.7500000 141.7760000
  63.8020000  54.2610000 142.1270000  64.8590000  53.9690000 140.9530000
  53.9190000  73.3620000 125.9720000  53.2100000  73.9730000 126.2730000
  54.6900000  73.8840000 125.6550000  53.5790000  72.8020000 125.2380000
  64.3560000  56.0970000 134.9680000  64.8440000  56.8920000 134.6580000
  63.9720000  55.6260000 134.1950000  63.6340000  56.3720000 135.5770000
  39.0740000  42.7720000 161.7410000  39.3920000  41.8490000 161.8560000
  39.8450000  43.3710000 161.6210000  38.5670000  43.0460000 162.5380000
  70.6760000  37.3380000 155.3210000  71.3160000  37.2870000 156.0660000
  69.8100000  37.6640000 155.6550000  70.5600000  36.4440000 154.9270000
  72.0790000  79.5510000  78.6370000  53.7370000  85.4120000  66.7850000
  45.3910000  76.6900000  81.6480000  33.8370000  53.4910000  68.3450000
  43.8690000  75.6180000  83.3440000  70.6340000  37.8480000  83.0230000
  75.9930000  55.5070000  71.5460000  40.4180000  80.8980000  84.5550000
  71.6750000  77.9090000  56.4580000  37.2060000  81.5500000  64.2250000
  42.1890000  55.0580000  88.4450000  89.0000000  45.3170000  93.5810000
  69.9470000  57.2830000  66.0550000  88.1260000  45.1720000  58.0800000
  86.4610000  84.0940000  68.8630000  55.2180000  83.5830000  65.9410000
  36.8210000  70.9740000  81.1220000  46.6620000  82.8010000  83.2160000
  86.5690000  87.1610000  75.5370000  78.7200000  72.9730000  92.0800000
  78.6350000  44.7450000  87.0380000  68.7080000  50.6730000  88.7680000
  35.8590000  56.9170000  94.0780000  58.7980000  72.5680000  76.7700000
  46.1130000  50.0310000  87.8860000  44.0270000  33.5000000  90.5420000
  59.6400000  33.1630000  74.1210000  80.3460000  31.2480000  80.0050000
  56.7970000  58.2850000  81.0150000  33.4200000  55.9070000  69.1230000
  81.2890000  82.4390000  76.0030000  82.9820000  31.7060000  79.6560000
  73.9350000  47.7240000  94.1500000  36.6690000  62.1330000  87.1640000
  31.0860000  45.0800000  62.4970000  66.3940000  41.8490000  82.8540000
  69.7470000  33.6400000  83.2900000  86.9180000  83.9170000  88.7890000
  39.6990000  50.2630000  57.8460000  85.9520000  52.2340000  57.7630000
  39.5120000  48.3080000  68.6680000  87.4800000  52.0410000  64.0530000
  41.7630000  81.2230000  72.5140000  86.9460000  62.9170000  86.4850000
  63.3990000  35.3920000  71.3650000  33.8470000  61.6990000  67.9950000
  73.4750000  36.1900000  62.2610000  65.6600000  64.2990000  83.9380000
  88.8260000  70.8700000  57.9130000  51.7060000  86.0250000  61.8030000
  45.9580000  34.5050000  58.0000000  44.5040000  55.4140000  87.5010000
  79.9730000  66.8050000  68.7430000  82.4780000  58.7990000  94.6390000
  58.5050000  76.1570000  76.4660000  68.6960000  68.0980000  88.8700000
  83.5310000  64.8380000  57.9480000  68.7990000  53.0230000  93.1740000
  83.8270000  35.7320000  70.6250000  50.2600000  73.6890000  61.2420000
  48.5160000  85.8790000  85.2350000  61.2690000  60.5220000  68.5760000
  79.9440000  82.0440000  60.6650000  51.2700000  60.7760000  58.5080000
  41.5460000  60.8840000  60.7130000  39.4720000  66.6540000  87.1520000
  31.0000000  58.0960000  64.3060000  82.4740000  41.7580000  82.5900000
  78.2580000  56.1520000  58.3410000  32.5620000  48.6010000  91.7570000
  47.6960000  70.2680000  82.5070000  48.2220000  86.1020000  74.5480000
  40.6780000  58.4580000  78.8120000  86.6680000  74.6970000  77.4000000
  62.4000000  68.4730000  89.5560000  88.9890000  42.1970000  90.6740000
  49.3870000  56.9630000  62.1230000  48.8090000  65.8080000  94.3320000
  70.9640000  50.6500000  59.1180000  40.3760000  65.3470000  84.9710000
  62.0660000  39.4730000  56.0000000  74.7560000  51.2500000  74.6400000
  62.8600000  84.3540000  63.3460000  45.6480000  71.4870000  64.8060000
  80.0650000  51.0510000  87.1060000  52.8590000  86.8620000  68.6240000
  74.6620000  66.9980000  63.3590000  53.0870000  33.3220000  78.5200000
  52.3460000  63.1620000  81.4570000  89.0000000  81.5530000  70.1910000
  86.7850000  64.5490000  84.3280000  78.5010000  57.1470000  80.2660000
  42.2770000  59.4270000 159.3330000  89.0000000  39.0130000 150.3760000
  43.2330000  84.4950000 128.4240000  44.3180000  80.6970000 158.3400000
  43.2720000  83.8640000 159.7920000  41.9330000  80.9420000 125.6000000
  43.5120000  83.0390000 144.2560000  56.5390000  86.6520000 151.2080000
  31.0000000  79.1770000 164.0000000  51.3280000  76.2200000 132.7190000
  78.3350000  63.4560000 134.3040000  75.0720000  36.9080000 141.3000000
  74.1000000  55.8260000 131.8230000  50.5740000  88.2450000 125.1190000
  61.3890000  59.1790000 125.3090000  51.6720000  76.3000000 125.9270000
  35.7670000  39.9260000 140.3270000  86.6680000  44.7220000 127.7730000
  62.5510000  85.2640000 140.4040000  80.1070000  89.0000000 147.2720000
  82.8330000  87.5400000 136.8080000  78.9000000  36.0160000 144.0650000
  75.5990000  85.7840000 141.6520000  41.0220000  45.4470000 156.7230000
  83.7280000  72.8910000 133.7760000  63.5180000  49.4500000 147.8380000
  36.0420000  42.0830000 163.4550000  54.2570000  49.4310000 135.1030000
  31.8510000  52.0580000 131.8180000  67.2710000  34.8450000 129.7280000
  39.5240000  40.6960000 144.7060000  74.8490000  39.3350000 148.6730000
  68.5790000  33.5450000 125.3800000  72.6910000  72.2520000 150.7880000
  33.4490000  58.3050000 147.6460000  46.4060000  79.2690000 160.5650000
  46.0710000  50.3430000 133.5260000  57.8200000  61.6370000 147.6720000
  43.2080000  77.7740000 156.9750000  45.4980000  82.7310000 148.1740000
  61.1620000  81.4580000 157.4400000  48.1470000  57.0190000 133.7690000
  55.7080000  69.4510000 148.6880000  40.2290000  86.2410000 162.9830000
  48.5750000  76.3330000 161.3990000  76.0770000  61.8180000 152.6420000
  72.7690000  81.8640000 146.9010000  69.0770000  78.0530000 147.0510000
  43.1580000  58.9140000 156.0840000  71.0820000  57.9420000 145.2850000
  35.1400000  75.6150000 158.7620000  52.4970000  50.5690000 149.0970000
  53.1450000  58.6020000 157.5990000  46.0020000  37.8560000 158.7000000
  36.1600000  57.4830000 132.3630000  42.4350000  36.5110000 151.0710000
  67.7740000  59.5500000 162.3790000  39.6820000  71.6390000 143.3870000
  49.8450000  37.9970000 159.6230000  65.3200000  56.2280000 158.6640000
  45.5750000  54.2160000 155.9100000  53.5440000  73.5690000 162.1960000
  76.4030000  86.8630000 129.6440000  47.2720000  60.9270000 134.2190000
  75.8490000  50.0990000 160.5590000  67.6040000  60.4570000 136.0890000
  73.1720000  74.6120000 136.8390000  59.8740000  66.7270000 145.5040000
  61.6560000  51.6490000 141.3140000  47.7770000  33.5630000 143.0120000
  70.3950000  77.5810000 139.2090000  70.6610000  88.0460000 142.4040000
  48.8200000  42.5620000 154.4460000  65.0450000  32.9030000 128.3120000
  67.8830000  38.4790000 157.0220000  35.4080000  42.0660000 141.5690000
  42.6870000  82.5830000 156.1990000  49.5120000  38.5800000 132.8720000
  44.6610000  76.1190000 150.9690000  82.5730000  79.4690000 142.0090000
  39.0110000  81.6600000 132.7400000  40.9150000  83.5140000 161.9100000
  37.6650000  83.5590000 131.8280000  74.6380000  89.0000000 151.5150000
  33.8320000  64.5550000 164.0000000  81.3110000  48.0100000 162.1210000
  33.7050000  34.9710000 123.7690000  54.3890000  39.6920000 149.9570000
  36.8310000  75.1180000 148.5270000  43.2620000  35.4700000 155.3530000
  47.8270000  60.5630000 127.6330000  38.9470000  65.1520000 132.4270000
  41.1210000  53.8940000  91.4980000  40.6940000  54.4030000  90.8100000
  41.1770000  54.4950000  92.2410000  46.4120000  61.8840000  87.8870000
  45.7520000  61.8880000  87.1940000  47.1750000  62.3110000  87.4950000
  60.1750000  58.2250000  73.6580000  60.5620000  59.0820000  73.8330000
  59.2410000  58.4030000  73.5410000  59.9720000  55.9140000  63.2230000
  59.6850000  56.0090000  64.1310000  59.1610000  55.8780000  62.7160000
  39.1250000  61.2310000  86.3260000  40.0730000  61.2600000  86.4530000
  38.9030000  62.0960000  85.9820000  31.4380000  31.0000000  75.1270000
  32.3480000  31.0990000  74.8470000  31.4740000  31.0590000  76.0820000
  39.5250000  74.6230000  77.1090000  40.2780000  74.7080000  76.5250000
  38.7700000  74.5730000  76.5220000  71.1270000  64.8010000  77.7320000
  70.9510000  64.9770000  78.6560000  70.7980000  65.5740000  77.2730000
  54.2790000  64.3170000  77.4360000  55.0290000  64.8260000  77.7410000
  54.2720000  64.4440000  76.4870000  46.6140000  73.9020000  77.0010000
  46.2370000  73.1430000  77.4450000  47.3210000  74.1910000  77.5790000
  69.8810000  84.1280000  76.6970000  69.5970000  83.2620000  76.4080000
  70.8150000  84.0250000  76.8810000  65.2740000  81.0940000  65.8560000
  66.1690000  81.3620000  65.6470000  64.8000000  81.9170000  65.9820000
  60.6900000  83.5540000  94.1140000  60.6420000  82.6320000  94.3640000
  59.9370000  83.9590000  94.5450000  62.0210000  47.6190000  61.0650000
  62.9350000  47.8640000  61.2070000  61.9270000  46.7770000  61.5120000
  65.4600000  65.3550000  79.1360000  64.6180000  64.9960000  79.4150000
  65.4820000  65.2080000  78.1900000  88.8170000  88.2290000  76.6940000
  88.2550000  88.9870000  76.8520000  89.0000000  87.8800000  77.5670000
  71.3560000  44.1970000  56.0000000  72.2960000  44.1070000  56.1540000
  71.1350000  45.0540000  56.3650000  52.7170000  37.9960000  85.6510000
  53.1630000  38.7580000  85.2820000  51.7870000  38.1660000  85.5000000
  45.8340000  81.3210000  77.8520000  45.0930000  81.5980000  77.3140000
  45.6780000  80.3900000  78.0130000  39.3590000  72.9570000  81.0460000
  39.1770000  72.0350000  81.2270000  38.6390000  73.2370000  80.4800000
  88.2870000  53.8280000  82.2410000  89.0000000  54.4310000  82.4480000
  87.5950000  54.3870000  81.8860000  48.0870000  81.4410000  96.4150000
  47.5910000  82.2320000  96.2050000  47.4470000  80.7320000  96.3510000
  81.0640000  81.9570000  86.5750000  81.7210000  82.6510000  86.6280000
  81.5740000  81.1500000  86.5030000  64.9080000  73.8790000  71.5770000
  64.8310000  72.9540000  71.8090000  64.4620000  74.3430000  72.2870000
  74.4510000  62.6970000  88.3930000  74.2350000  61.8550000  87.9930000
  75.0820000  62.4810000  89.0800000  41.0470000  31.6660000  74.1220000
  41.6990000  31.0000000  73.9030000  41.5440000  32.4830000  74.1660000
  75.8270000  54.9980000  77.5960000  74.9080000  55.2220000  77.4480000
  75.8550000  54.0430000  77.5300000  76.4930000  42.8470000  59.9580000
  75.9410000  42.9890000  59.1890000  75.8760000  42.7900000  60.6890000
  66.6270000  37.2250000  57.1410000  66.2890000  36.9890000  56.2780000
  67.5670000  37.0460000  57.0880000  76.4300000  88.9920000  79.0290000
  75.5430000  89.0000000  79.3880000  76.3630000  88.4540000  78.2390000
  41.6160000  31.0000000  95.7830000  42.2300000  31.1570000  96.5000000
  42.1260000  31.1690000  94.9900000  63.2910000  73.9260000  95.5300000
  63.0870000  73.9750000  94.5970000  63.2880000  72.9890000  95.7280000
  42.1530000  66.1880000  65.6090000  42.9540000  65.7120000  65.8270000
  42.4400000  67.0910000  65.4740000  81.0130000  42.2100000  76.0520000
  80.2920000  42.7160000  75.6790000  81.7360000  42.8340000  76.1170000
  87.2620000  69.6390000  83.5410000  87.8470000  70.0410000  84.1830000
  86.7460000  70.3680000  83.1970000  54.1950000  67.2970000  60.3930000
  53.2620000  67.5060000  60.4250000  54.5880000  68.0270000  59.9140000
  31.9190000  65.4790000  70.7210000  31.0000000  65.6130000  70.9540000
  32.2890000  66.3620000  70.6880000  40.4960000  64.1810000  96.5000000
  40.3760000  64.7730000  95.7580000  41.3140000  63.7210000  96.3100000
  74.5480000  34.3910000  81.2670000  74.7520000  34.8490000  82.0820000
  74.6230000  33.4620000  81.4880000  86.4540000  52.9080000  75.8180000
  86.3200000  52.3210000  76.5610000  86.3670000  53.7870000  76.1880000
  31.4520000  59.7970000  84.0420000  31.2740000  60.7220000  83.8740000
  32.1310000  59.8020000  84.7180000  49.0880000  44.6550000  95.9050000
  48.8450000  45.3820000  96.4770000  49.4170000  43.9810000  96.5000000
  63.0650000  34.3650000  65.9120000  62.9230000  35.1230000  66.4790000
  63.6580000  33.8000000  66.4100000  73.5650000  44.1890000  96.2860000
  74.0730000  43.4060000  96.5000000  74.1530000  44.9180000  96.4840000
  31.0330000  68.5080000  72.7690000  31.0000000  68.6130000  71.8190000
  31.1340000  67.5650000  72.9030000  86.9240000  33.7410000  72.0590000
  86.7510000  34.2550000  71.2700000  87.8680000  33.5830000  72.0390000
  83.5980000  59.7800000  71.3480000  82.7820000  60.2790000  71.3710000
  84.2870000  60.4440000  71.3620000  38.8210000  61.3250000  56.0010000
  38.1040000  60.6920000  56.0000000  39.6150000  60.7890000  56.0020000
  88.8070000  79.1200000  56.6710000  88.9110000  78.2490000  56.2890000
  88.3460000  79.6240000  56.0000000  70.4700000  86.9570000  68.6690000
  70.5700000  86.7380000  67.7430000  71.2750000  87.4260000  68.8920000
  41.7700000  69.2970000  56.1120000  41.3760000  68.8050000  56.8320000
  41.1980000  70.0570000  56.0000000  48.6330000  68.5090000  74.5060000
  48.4070000  68.4290000  75.4320000  47.9060000  68.0900000  74.0450000
  57.9710000  56.5480000  75.7460000  57.4460000  55.8420000  75.3700000
  58.8220000  56.4720000  75.3120000  62.2980000  65.9170000  63.2920000
  62.9570000  65.4000000  62.8300000  62.7440000  66.7360000  63.5100000
  78.0200000  67.6820000  87.4960000  78.1310000  66.9860000  88.1440000
  78.8990000  67.8230000  87.1420000  53.3120000  75.1590000  70.9810000
  53.0650000  74.2720000  71.2420000  52.4810000  75.6290000  70.9100000
  44.8830000  62.2280000  70.2150000  44.2120000  62.7910000  69.8290000
  45.4960000  62.8350000  70.6310000  48.6320000  67.4830000  56.0200000
  47.6880000  67.3300000  56.0650000  48.7190000  68.4370000  56.0000000
  66.3840000  44.1450000  75.7930000  66.5450000  43.2940000  76.1980000
  66.5840000  44.0120000  74.8660000  81.5400000  41.8080000  61.8760000
  81.3590000  40.9190000  61.5720000  82.3340000  42.0650000  61.4060000
  31.0000000  64.9350000  74.3630000  31.0660000  65.8280000  74.7000000
  31.0180000  65.0350000  73.4110000  81.0670000  35.5140000  56.0000000
  81.9510000  35.8820000  56.0000000  81.2030000  34.5660000  56.0000000
  33.0090000  36.4420000  81.5990000  32.7260000  36.7820000  80.7510000
  33.4560000  35.6200000  81.3910000  68.0700000  58.1040000  93.5890000
  68.3400000  59.0080000  93.7510000  68.0010000  58.0410000  92.6360000
  42.6370000  40.8210000  93.6260000  42.8290000  39.9890000  94.0570000
  42.4130000  40.5800000  92.7260000  69.8490000  43.4580000  87.2110000
  70.4260000  44.0060000  86.6800000  69.0680000  43.9960000  87.3500000
  33.3370000  33.2460000  90.5060000  32.5940000  33.8440000  90.5810000
  33.4050000  32.8370000  91.3690000  48.7230000  72.9760000  63.9810000
  48.7970000  73.1520000  64.9190000  49.5300000  73.3300000  63.6060000
  41.1560000  60.3070000  76.7820000  41.4910000  61.1250000  76.4160000
  40.5000000  60.5820000  77.4240000  58.7780000  78.9070000  63.1680000
  58.3380000  78.0890000  63.4010000  58.1070000  79.5810000  63.2830000
  87.1940000  46.9200000  68.0770000  86.4870000  47.5610000  68.1450000
  86.7630000  46.1180000  67.7820000  53.6150000  88.8850000  95.8190000
  53.8680000  88.1130000  95.3130000  54.3190000  88.9940000  96.4590000
  34.3860000  61.1010000  86.8950000  34.6560000  60.1930000  87.0320000
  34.0340000  61.3780000  87.7410000  53.8810000  87.0370000  75.9670000
  53.8560000  87.9930000  76.0180000  52.9710000  86.7810000  75.8160000
  78.1630000  82.5350000  66.9160000  78.8160000  83.2270000  67.0270000
  77.3220000  82.9830000  67.0050000  84.1420000  86.3160000  93.6940000
  84.7690000  86.2300000  94.4120000  84.1720000  85.4700000  93.2460000
  31.0180000  54.7910000  59.8340000  31.0240000  55.0300000  58.9080000
  31.9400000  54.8040000  60.0920000  52.6620000  88.4650000  92.4520000
  52.4180000  88.9970000  93.2090000  52.7890000  87.5850000  92.8080000
  68.3240000  70.6320000  66.7410000  69.2730000  70.7480000  66.7860000
  67.9730000  71.5230000  66.7230000  64.7570000  54.3250000  60.5290000
  65.6790000  54.1050000  60.3960000  64.5720000  54.0500000  61.4270000
  31.5170000  85.0420000  81.9050000  31.0000000  85.0860000  82.7090000
  31.0010000  84.4900000  81.3170000  67.1720000  47.2420000  65.2310000
  67.8750000  47.2940000  64.5830000  67.5550000  46.7550000  65.9610000
  78.8160000  77.8360000  66.4490000  78.0300000  77.4660000  66.0470000
  79.1950000  77.1110000  66.9470000  42.7150000  56.0470000  96.3770000
  42.1690000  56.8270000  96.4780000  42.0920000  55.3220000  96.3300000
  38.1720000  55.4430000  89.5180000  37.6800000  55.8750000  90.2160000
  37.6120000  55.5220000  88.7450000  86.0810000  52.0670000  66.1250000
  85.5730000  51.3810000  65.6920000  86.8680000  51.6200000  66.4400000
  40.8760000  69.9940000  91.9640000  41.3530000  70.5320000  92.5960000
  39.9740000  70.3110000  92.0110000  46.0160000  68.7490000  64.0260000
  45.5860000  67.8950000  64.0410000  46.3340000  68.8740000  64.9200000
  58.1740000  79.7970000  80.5210000  57.8510000  78.8980000  80.4720000
  58.9920000  79.7310000  81.0150000  40.0270000  55.4870000  78.5590000
  39.4040000  56.0390000  78.0860000  40.3220000  56.0300000  79.2900000
  83.7050000  86.3110000  79.5060000  84.0460000  87.2020000  79.5820000
  84.3000000  85.7800000  80.0350000  62.1650000  42.3940000  86.3590000
  62.2970000  41.4750000  86.5920000  61.2150000  42.4840000  86.2710000
  37.8360000  63.9900000  65.5750000  37.4570000  64.5660000  64.9120000
  37.4350000  64.2740000  66.3970000  70.4090000  48.8820000  63.7770000
  71.2200000  48.4140000  63.5790000  70.2980000  48.7800000  64.7230000
  35.3940000  76.2140000  94.6630000  36.0470000  75.5410000  94.4750000
  35.8330000  76.8120000  95.2680000  58.7960000  65.7660000  84.7770000
  58.0600000  66.2530000  85.1470000  59.5330000  66.3760000  84.8190000
  88.1140000  56.2790000  85.0510000  88.2440000  55.4410000  84.6070000
  89.0000000  56.6110000  85.2000000  81.7160000  78.2680000  84.6860000
  82.1310000  79.1270000  84.7670000  82.4320000  77.6430000  84.8030000
  44.1150000  79.6600000  70.7780000  43.1740000  79.8270000  70.7290000
  44.3350000  79.7940000  71.7000000  77.6650000  58.7130000  87.3090000
  78.1810000  58.5400000  88.0960000  76.8300000  59.0470000  87.6380000
  79.5290000  31.0000000  70.1250000  79.3540000  31.0020000  69.1850000
  80.4450000  31.2680000  70.1990000  64.1110000  44.6060000  92.3450000
  63.7140000  43.7970000  92.0220000  64.2980000  45.1130000  91.5550000
  61.4540000  64.2620000  86.0820000  61.5120000  65.1600000  85.7570000
  61.6570000  63.7180000  85.3200000  88.8740000  74.3840000  91.2560000
  88.7410000  75.1770000  90.7360000  89.0000000  73.6910000  90.6070000
  67.5460000  88.9350000  88.4550000  68.3320000  88.3920000  88.5180000
  67.2250000  89.0000000  89.3540000  85.7120000  67.0310000  63.7330000
  85.0720000  67.7410000  63.7620000  85.1860000  66.2370000  63.6380000
  36.1190000  59.2220000  73.3380000  35.7090000  58.5660000  72.7740000
  37.0500000  59.0020000  73.3240000  70.4960000  53.3590000  57.0080000
  69.7980000  53.3220000  56.3540000  70.6880000  52.4420000  57.2060000
  84.3250000  78.0910000  75.4600000  83.7620000  78.7720000  75.8280000
  83.7170000  77.4340000  75.1210000  36.6700000  88.9420000  68.8700000
  37.6200000  89.0000000  68.7720000  36.3320000  89.0000000  67.9760000
  76.5610000  81.3580000  82.6720000  75.6190000  81.2400000  82.5510000
  76.7130000  82.2840000  82.4800000  83.9170000  88.5430000  94.8260000
  84.0900000  89.0000000  95.6490000  83.1640000  89.0000000  94.4520000
  50.1870000  55.9540000  91.8250000  50.7770000  55.3210000  92.2330000
  50.6620000  56.2610000  91.0530000  56.5100000  46.2440000  94.6480000
  55.7060000  46.4100000  94.1560000  56.3940000  45.3630000  95.0060000
  78.9080000  33.7800000  69.9380000  78.8010000  34.7070000  69.7240000
  79.6150000  33.4820000  69.3660000  46.0220000  31.0000000  91.5510000
  46.7320000  31.6390000  91.6080000  45.2250000  31.5290000  91.5070000
  53.5090000  84.1800000  86.5410000  54.0460000  83.4480000  86.8440000
  53.9900000  84.9610000  86.8140000  69.7140000  34.0940000  65.2410000
  69.7950000  34.5990000  66.0500000  70.5200000  33.5780000  65.1990000
  65.3890000  40.6250000  77.5410000  65.2190000  41.1220000  76.7420000
  65.7100000  41.2760000  78.1660000  88.4940000  88.4250000  85.3330000
  89.0000000  89.0000000  84.7600000  87.8420000  89.0000000  85.7340000
  48.3340000  40.7040000  66.9910000  47.9670000  39.9690000  67.4820000
  47.6270000  40.9800000  66.4080000  48.4510000  57.8810000  95.2760000
  48.4180000  58.8360000  95.2230000  48.6970000  57.6990000  96.1830000
  68.1290000  59.2990000  64.8600000  67.3280000  58.7800000  64.9310000
  68.7460000  58.7260000  64.4040000  63.9750000  41.5660000  96.5000000
  64.6120000  40.8510000  96.5000000  63.1230000  41.1280000  96.5000000
  68.9050000  73.2780000  83.5380000  68.4130000  72.8840000  82.8170000
  68.5790000  74.1770000  83.5870000  72.6370000  38.5880000  68.5500000
  71.7430000  38.2490000  68.5000000  72.5430000  39.4550000  68.9460000
  36.8300000  82.4070000  58.7540000  36.4120000  83.2460000  58.5590000
  36.2600000  81.7550000  58.3460000  51.8020000  58.2130000  81.5380000
  51.9470000  57.9940000  82.4580000  50.8940000  57.9570000  81.3710000
  37.5460000  45.7580000  69.2410000  37.1680000  46.2650000  68.5230000
  37.3360000  44.8480000  69.0300000  81.5740000  77.6960000  62.4880000
  80.6340000  77.7380000  62.3110000  81.6920000  76.8740000  62.9640000
  51.2730000  84.2970000  88.0860000  51.7290000  85.1360000  88.0130000
  50.3790000  84.4840000  87.8000000  78.3270000  76.9650000  56.1500000
  77.8770000  76.1200000  56.1310000  79.2480000  76.7500000  56.0000000
  70.8290000  64.4630000  74.8230000  71.0830000  65.3530000  74.5810000
  71.5580000  64.1410000  75.3550000  62.3490000  57.7270000  72.1620000
  63.1350000  57.5410000  71.6480000  62.6760000  57.8950000  73.0470000
  41.3430000  77.8630000  61.0210000  41.2510000  77.0840000  61.5700000
  40.5260000  77.9040000  60.5250000  80.0570000  64.4660000  77.8820000
  80.1800000  63.5200000  77.8100000  80.4840000  64.8240000  77.1030000
  46.6050000  88.8330000  56.0370000  46.2000000  87.9660000  56.0000000
  46.7290000  89.0000000  56.9710000  46.6560000  89.0000000  94.2320000
  45.7830000  88.9900000  94.6240000  46.4990000  88.8960000  93.2930000
  39.5150000  40.0980000  63.4480000  39.2550000  40.4840000  64.2840000
  39.0260000  39.2760000  63.4020000  35.8050000  66.8640000  56.0040000
  34.8490000  66.8850000  56.0100000  36.0650000  67.7860000  56.0000000
  37.2800000  65.5130000  73.4330000  36.8600000  66.2340000  72.9650000
  38.0740000  65.8980000  73.8050000  41.9210000  42.8450000  58.2130000
  41.7540000  42.0030000  58.6360000  41.9820000  43.4690000  58.9370000
  54.2090000  52.4720000  79.2140000  53.9760000  52.1810000  78.3320000
  53.9180000  53.3840000  79.2500000  67.1480000  69.3750000  73.5670000
  66.9720000  68.6060000  74.1080000  67.5710000  69.9950000  74.1620000
  50.9510000  78.2590000  71.1730000  50.7130000  77.9360000  72.0420000
  50.1240000  78.2820000  70.6910000  49.8650000  70.6170000  80.5190000
  48.9610000  70.7300000  80.2250000  50.1180000  71.4780000  80.8530000
  31.1970000  69.9780000  64.4530000  31.0000000  70.5420000  65.2010000
  31.0350000  70.5300000  63.6870000  38.7150000  72.2500000  94.4300000
  38.7250000  71.7960000  93.5870000  38.4520000  73.1460000  94.2160000
  36.0270000  53.5640000  92.1540000  36.4930000  54.2940000  91.7470000
  35.3450000  53.3330000  91.5220000  41.6490000  45.2360000  66.0850000
  41.0010000  44.9440000  66.7260000  41.2270000  45.0980000  65.2360000
  80.7490000  79.6970000  81.8390000  80.5410000  80.6310000  81.8630000
  79.9160000  79.2600000  82.0190000  56.3240000  41.7770000  89.6230000
  56.9130000  42.5150000  89.7810000  56.9060000  41.0510000  89.3950000
  53.6640000  31.0000000  60.2900000  54.6170000  31.0640000  60.2340000
  53.3650000  31.0570000  59.3820000  56.5990000  82.2100000  56.1240000
  55.9280000  82.8900000  56.0810000  56.1190000  81.3910000  56.0000000
  65.8270000  59.0840000  83.6230000  65.2490000  58.3960000  83.2940000
  65.2420000  59.7000000  84.0630000  48.0390000  71.6160000  96.0650000
  47.8170000  72.5310000  96.2360000  47.3480000  71.1150000  96.5000000
  47.9460000  81.9580000  75.3970000  47.9720000  81.6890000  76.3150000
  48.4650000  81.2970000  74.9390000  31.0230000  40.9490000  74.6040000
  31.4870000  40.1140000  74.5520000  31.0000000  41.1530000  75.5400000
  84.0040000  82.2280000  87.5550000  83.7780000  81.3050000  87.6720000
  84.1990000  82.3100000  86.6210000  64.3860000  55.4150000  69.8130000
  63.8460000  55.3050000  70.5960000  63.7570000  55.4550000  69.0920000
  86.5810000  87.1480000  66.1070000  86.6630000  87.0610000  65.1570000
  87.4350000  87.4740000  66.3920000  67.2600000  33.2820000  56.3020000
  67.3990000  32.3850000  56.0000000  66.3730000  33.4980000  56.0140000
  31.0820000  50.3070000  67.4000000  31.0000000  49.5700000  66.7950000
  31.3020000  49.9030000  68.2400000  47.7740000  86.5220000  67.7010000
  47.3790000  85.6800000  67.9260000  48.6890000  86.3140000  67.5100000
  64.7400000  66.1510000  82.5330000  64.2410000  66.6270000  81.8690000
  64.2350000  66.2640000  83.3390000  75.8440000  57.0250000  67.4710000
  76.0130000  57.8700000  67.8880000  76.7070000  56.6170000  67.3960000
  86.5590000  85.8310000  91.9240000  86.5350000  85.8780000  90.9690000
  86.1320000  86.6370000  92.2150000  60.6890000  81.4960000  86.5400000
  60.1780000  81.5500000  87.3470000  61.5950000  81.6280000  86.8210000
  60.3980000  46.6920000  94.3670000  60.6090000  47.6250000  94.3980000
  61.0740000  46.2750000  94.9010000  71.0350000  76.8970000  74.1540000
  70.7200000  77.4450000  74.8730000  71.9710000  76.7920000  74.3240000
  88.9060000  64.5960000  56.8800000  89.0000000  65.5390000  56.7450000
  88.9570000  64.2220000  56.0000000  57.1660000  79.7820000  93.0220000
  57.8330000  79.3910000  92.4590000  57.3580000  79.4400000  93.8960000
  33.2220000  44.6100000  82.0610000  32.4090000  44.8770000  82.4910000
  32.9560000  43.9180000  81.4560000  80.8950000  83.2220000  96.5070000
  81.5510000  82.9290000  95.8750000  80.4050000  83.9030000  96.0460000
  54.0980000  80.5220000  94.2420000  54.9750000  80.1450000  94.1710000
  54.2470000  81.4200000  94.5410000  47.3720000  52.7100000  65.8340000
  47.1390000  53.6350000  65.7570000  48.3280000  52.7070000  65.8900000
  59.7850000  80.8060000  61.8910000  60.5270000  80.5480000  62.4380000
  60.1830000  81.1300000  61.0830000  54.3910000  54.8390000  74.9040000
  54.7420000  55.7210000  75.0220000  55.1460000  54.3130000  74.6390000
  50.3360000  89.0000000  88.0430000  50.2470000  88.1100000  87.7010000
  49.9890000  88.9510000  88.9340000  63.8680000  72.9420000  66.1160000
  63.8640000  73.0260000  65.1630000  63.0630000  73.3760000  66.3990000
  41.7460000  47.2280000  68.3650000  41.4480000  46.3890000  68.7160000
  42.3940000  46.9930000  67.7000000  46.2040000  72.3550000  82.1510000
  45.7790000  73.1690000  81.8800000  46.5710000  72.5520000  83.0130000
  71.4680000  68.1770000  86.3880000  71.5660000  67.3690000  86.8920000
  72.1210000  68.7710000  86.7570000  78.3090000  49.1950000  56.0570000
  77.4430000  49.6030000  56.0280000  78.1330000  48.2560000  56.0000000
  31.0130000  66.4020000  56.4280000  31.7410000  66.8530000  56.0000000
  31.4040000  65.9920000  57.2000000  33.8710000  86.7570000  94.5570000
  33.5520000  87.6520000  94.4450000  33.2170000  86.2120000  94.1190000
  37.6300000  51.0480000  64.9280000  37.6960000  50.4600000  64.1750000
  37.8710000  50.5040000  65.6780000  61.8570000  59.0460000  62.1280000
  62.2710000  59.5270000  61.4110000  60.9350000  59.2980000  62.0850000
  71.6140000  38.9890000  71.7400000  70.8050000  38.8960000  71.2370000
  71.6710000  38.1830000  72.2550000  75.2020000  76.3340000  68.9700000
  76.0180000  76.1100000  69.4160000  74.8270000  77.0400000  69.4960000
  61.7330000  73.2230000  79.7060000  62.3460000  72.6120000  80.1150000
  62.1940000  73.5410000  78.9300000  82.9130000  53.0690000  75.1240000
  82.9420000  54.0000000  74.9020000  83.7280000  52.9100000  75.6010000
  44.5720000  52.4740000  63.0130000  43.8920000  53.0310000  62.6340000
  45.3890000  52.8060000  62.6400000  71.5770000  75.4820000  96.4120000
  70.9450000  74.7690000  96.5000000  72.0010000  75.3240000  95.5670000
  44.2890000  89.0000000  82.5640000  43.4860000  88.4800000  82.5540000
  44.9920000  88.3570000  82.4640000  78.1580000  83.6850000  75.4960000
  79.1040000  83.7430000  75.6270000  77.9910000  82.7510000  75.3640000
  36.2850000  44.4960000  71.8590000  35.9840000  43.8250000  71.2460000
  37.1410000  44.7620000  71.5210000  56.9220000  46.7360000  64.4120000
  56.5830000  47.4240000  64.9840000  56.9220000  45.9490000  64.9580000
  51.6020000  38.7390000  96.5000000  52.2800000  38.0640000  96.4880000
  50.8250000  38.3050000  96.1470000  44.3860000  31.1690000  59.7440000
  44.7490000  31.9260000  60.2040000  43.4680000  31.3960000  59.5960000
  76.8050000  88.2270000  61.8740000  76.3420000  88.5860000  62.6300000
  76.5040000  88.7540000  61.1340000  37.6380000  50.0000000  70.7930000
  38.0860000  49.9100000  69.9520000  37.4100000  49.1030000  71.0400000
  82.5580000  32.5380000  65.9140000  81.9200000  31.8940000  65.6070000
  82.2780000  33.3620000  65.5140000  52.5880000  58.3650000  75.6650000
  52.4970000  58.7380000  76.5410000  53.4170000  57.8860000  75.6930000
  88.3350000  59.7580000  61.4340000  87.5030000  60.2280000  61.4780000
  89.0000000  60.4470000  61.4230000  33.8390000  56.1740000  84.5340000
  34.4810000  56.7910000  84.8850000  33.2160000  56.0430000  85.2490000
  56.2560000  88.4900000  56.0000000  56.8830000  89.0000000  56.5110000
  55.4460000  88.9990000  56.0360000  57.7460000  34.4220000  71.6160000
  57.7300000  35.3270000  71.3060000  58.5620000  34.3520000  72.1110000
  84.8490000  78.4460000  96.5000000  84.4850000  77.8400000  95.8560000
  85.7960000  78.3160000  96.4450000  69.7240000  80.7190000  87.4010000
  69.3760000  81.4210000  87.9500000  69.7380000  81.0890000  86.5180000
  53.9460000  31.0260000  75.8300000  54.4610000  31.0000000  76.6360000
  53.1430000  31.4870000  76.0730000  86.5150000  79.2290000  91.3540000
  87.0640000  79.9740000  91.6000000  85.6290000  79.4930000  91.6020000
  31.0000000  42.6710000  64.5120000  31.4120000  41.8390000  64.7440000
  31.3350000  42.8690000  63.6370000  49.3010000  45.0350000  64.7580000
  48.8940000  44.2730000  64.3470000  49.9320000  44.6640000  65.3760000
  79.5140000  74.2610000  56.4720000  80.1920000  73.7190000  56.0700000
  78.8280000  73.6420000  56.7230000  80.2110000  41.8200000  56.0020000
  81.0820000  42.2170000  56.0020000  79.6090000  42.5650000  56.0030000
  88.8780000  71.1710000  72.6010000  88.9920000  71.0400000  71.6600000
  88.9890000  72.1140000  72.7260000  88.6880000  87.0930000  73.9850000
  89.0000000  87.9710000  74.2030000  88.9720000  86.9560000  73.0810000
  63.3130000  40.3510000  79.0760000  62.5210000  40.8530000  78.8860000
  63.2890000  39.6220000  78.4550000  56.8670000  62.7720000  91.1720000
  56.3220000  62.1430000  90.7010000  56.4930000  62.8030000  92.0530000
  33.9400000  46.7480000  78.3860000  33.7540000  45.9080000  78.8050000
  34.7040000  47.0860000  78.8550000  72.1130000  69.5440000  83.5950000
  71.4020000  69.4660000  82.9590000  72.5350000  68.6850000  83.5900000
  34.0350000  80.9610000  77.4270000  33.8220000  80.2230000  77.9980000
  34.9730000  81.1020000  77.5560000  59.3370000  76.9950000  71.8870000
  58.8930000  76.9230000  72.7310000  59.7060000  77.8780000  71.8840000
  67.8460000  53.5440000  90.6820000  67.3600000  53.3540000  89.8800000
  68.5590000  54.1170000  90.4000000  67.2820000  76.6290000  68.5320000
  66.9530000  76.5160000  67.6400000  68.2020000  76.8680000  68.4190000
  46.0500000  46.0950000  64.3210000  45.9210000  46.9780000  63.9770000
  46.8580000  45.7910000  63.9070000  44.6130000  71.5560000  80.3610000
  43.8670000  71.1030000  79.9710000  45.0850000  71.9290000  79.6150000
  37.2980000  82.5450000  66.8600000  37.2510000  83.5000000  66.8890000
  38.2350000  82.3510000  66.8280000  44.7320000  45.4930000  96.4930000
  44.1670000  44.7200000  96.4930000  45.6220000  45.1390000  96.5000000
  36.4610000  46.1390000  84.8180000  37.0570000  45.7740000  85.4710000
  36.0440000  46.8790000  85.2600000  83.5890000  64.9390000  65.0590000
  83.4330000  63.9950000  65.0700000  82.7140000  65.3270000  65.0540000
  72.0610000  33.2250000  68.2270000  71.5370000  32.8240000  68.9200000
  71.7480000  32.8130000  67.4210000  86.5490000  85.5240000  82.0110000
  86.1330000  84.6640000  81.9640000  85.8190000  86.1440000  82.0260000
  35.9750000  86.3350000  87.7630000  35.7840000  86.3570000  88.7010000
  35.2730000  86.8510000  87.3640000  88.2740000  75.9550000  57.1180000
  89.0010000  75.6950000  57.6840000  87.9000000  75.1280000  56.8130000
  78.9710000  43.1600000  59.6650000  79.2950000  42.2810000  59.8600000
  78.8220000  43.5570000  60.5230000  71.0510000  86.5740000  61.2970000
  70.2660000  86.5690000  61.8450000  71.4610000  85.7240000  61.4580000
  31.6610000  55.8030000  76.6310000  31.0000000  55.2170000  77.0000000
  32.4730000  55.2960000  76.6580000  85.2890000  64.9120000  76.5750000
  84.7950000  64.0960000  76.6510000  84.8390000  65.4020000  75.8870000
  80.8250000  81.7660000  73.1450000  80.7750000  81.9810000  72.2130000
  81.6800000  82.0960000  73.4210000  84.8790000  34.1090000  80.2040000
  84.9820000  35.0200000  80.4770000  85.7060000  33.6910000  80.4450000
  89.0000000  55.2620000  87.7230000  88.6190000  56.1380000  87.6620000
  88.6170000  54.7820000  86.9890000  31.4470000  50.8040000  80.1700000
  31.0630000  50.6140000  79.3140000  31.0350000  51.6250000  80.4410000
  83.3400000  54.5070000  86.7650000  83.0810000  53.6460000  86.4380000
  83.5030000  54.3700000  87.6980000  71.4760000  48.7350000  96.0590000
  72.1730000  48.2490000  96.5000000  71.7870000  49.6400000  96.0450000
  75.2430000  61.1590000  56.7050000  76.1740000  61.3780000  56.6860000
  74.7970000  62.0060000  56.7230000  59.0750000  88.8340000  79.8030000
  58.6660000  88.9800000  80.6550000  58.5630000  88.1280000  79.4080000
  71.3490000  67.1520000  96.3970000  71.8430000  67.9710000  96.4470000
  70.4340000  67.4180000  96.5000000  56.6010000  44.6770000  71.0240000
  57.4670000  44.5060000  71.3920000  56.2700000  43.8130000  70.7760000
  67.1940000  54.4730000  74.1800000  67.9990000  54.9260000  73.9330000
  66.5960000  55.1720000  74.4440000  82.0950000  73.1580000  91.0710000
  81.9930000  73.5670000  91.9300000  81.2290000  72.8020000  90.8700000
  35.3770000  42.8660000  90.9780000  36.3100000  42.6800000  91.0780000
  35.2530000  42.9690000  90.0350000  39.9620000  36.1760000  90.4610000
  40.4560000  36.8840000  90.8720000  39.4870000  36.5980000  89.7450000
  54.3970000  37.8160000  77.4080000  55.2810000  37.5230000  77.1890000
  54.4370000  38.7710000  77.3430000  52.1540000  68.8970000  56.0200000
  53.0850000  68.6790000  56.0000000  51.7090000  68.0490000  56.0290000
  80.0600000  55.5450000  56.0180000  80.8060000  54.9450000  56.0270000
  79.2920000  54.9730000  56.0000000  50.6530000  86.6100000  74.2530000
  50.7030000  85.7850000  74.7360000  50.6890000  87.2860000  74.9300000
  38.2260000  77.9320000  58.0140000  39.1220000  78.0100000  58.3410000
  38.1140000  78.6880000  57.4380000  37.5130000  51.1500000  75.2300000
  38.3180000  50.6940000  75.4740000  37.5240000  51.1590000  74.2720000
  42.8020000  52.3150000  86.9980000  42.7380000  52.0280000  86.0870000
  43.5750000  52.8790000  87.0190000  53.8090000  48.7350000  59.7280000
  54.3600000  48.1620000  60.2610000  53.6430000  48.2330000  58.9300000
  45.7290000  40.9790000  89.6900000  45.3710000  40.4990000  90.4370000
  46.6600000  40.7590000  89.6870000  85.7250000  55.3940000  94.0650000
  86.6660000  55.4310000  93.8930000  85.3300000  55.8850000  93.3450000
  86.1800000  83.6330000  84.2420000  85.5150000  82.9620000  84.3950000
  86.0860000  84.2360000  84.9790000  77.2740000  85.8260000  60.6880000
  77.6110000  85.6430000  61.5660000  77.2980000  84.9790000  60.2420000
  72.8580000  79.7490000  61.1470000  73.2760000  80.1840000  61.8900000
  73.5810000  79.5360000  60.5560000  83.3070000  62.6260000  89.7590000
  83.9320000  61.9050000  89.8250000  83.6010000  63.2580000  90.4160000
  70.5220000  63.3390000  85.3860000  69.9770000  63.4320000  86.1670000
  71.2340000  63.9670000  85.5130000  87.6220000  82.1770000  76.1820000
  87.5310000  81.9160000  75.2660000  87.9980000  83.0560000  76.1440000
  89.0000000  40.9550000  73.6850000  88.0890000  40.6650000  73.7380000
  88.9440000  41.8810000  73.4480000  67.3490000  60.8560000  66.6530000
  68.1960000  60.6230000  67.0330000  67.4160000  61.7950000  66.4760000
  65.2130000  41.0740000  56.0000000  64.2750000  41.2660000  56.0000000
  65.6340000  41.9340000  56.0320000  76.4590000  61.9430000  92.6450000
  76.1740000  61.4840000  91.8550000  77.2580000  61.4880000  92.9130000
  71.4090000  42.2490000  71.4490000  71.1690000  41.3750000  71.1420000
  70.5950000  42.7520000  71.3990000  60.9200000  44.7560000  60.2310000
  60.0720000  45.0190000  59.8720000  61.2890000  44.1700000  59.5700000
  77.5150000  38.4300000  96.5000000  76.5950000  38.6910000  96.5000000
  77.9990000  39.2560000  96.5000000  81.5340000  83.0690000  91.7180000
  80.7250000  82.6470000  91.4300000  82.2260000  82.6170000  91.2360000
  77.4730000  48.2340000  67.0280000  76.6790000  48.7680000  67.0300000
  77.1550000  47.3310000  67.0260000  67.1630000  67.0300000  82.2870000
  67.7940000  67.7490000  82.2690000  67.7020000  66.2380000  82.2940000
  79.2790000  33.5890000  75.6710000  80.1230000  33.9320000  75.3770000
  78.7740000  33.4750000  74.8660000  55.3760000  62.9370000  79.3550000
  55.0330000  62.3430000  80.0220000  55.4770000  62.3910000  78.5750000
  45.7810000  69.3180000  74.5210000  45.8370000  69.8990000  75.2790000
  44.9610000  68.8380000  74.6470000  71.5750000  72.5340000  58.0120000
  71.2290000  71.6800000  58.2700000  72.2250000  72.3360000  57.3380000
  63.4740000  51.7370000  83.0350000  62.5540000  51.5520000  82.8430000
  63.5190000  52.6910000  83.0960000  67.8110000  82.7730000  91.2020000
  67.0010000  82.3950000  90.8610000  68.5080000  82.2800000  90.7680000
  83.6400000  74.8570000  94.2200000  83.6100000  73.9100000  94.3560000
  83.6990000  75.2240000  95.1020000  52.2260000  64.7580000  68.4310000
  51.9940000  64.3940000  69.2850000  51.3860000  64.9020000  67.9950000
  50.9790000  75.9630000  78.3530000  50.2880000  76.2940000  77.7800000
  51.4020000  76.7500000  78.6980000  45.1690000  60.5350000  67.6220000
  45.0340000  61.4570000  67.8400000  45.7310000  60.5510000  66.8470000
  72.8990000  53.3700000  76.1440000  72.7550000  54.2590000  76.4690000
  73.8510000  53.2870000  76.0880000  89.0000000  48.6140000  87.6130000
  88.2290000  49.0170000  88.0110000  88.9170000  48.8090000  86.6790000
  38.0360000  46.0080000  82.5080000  38.8350000  46.4300000  82.1910000
  38.3440000  45.2310000  82.9750000  76.7510000  66.2790000  61.0130000
  76.7090000  66.9270000  61.7160000  76.6610000  66.7910000  60.2090000
  39.2940000  45.5420000  89.7790000  38.4250000  45.4720000  90.1720000
  39.3140000  44.8530000  89.1150000  54.3650000  78.9770000  81.4380000
  55.0840000  78.3460000  81.4670000  54.0610000  79.0350000  82.3440000
  78.2700000  45.3210000  63.5150000  78.5820000  45.9430000  64.1720000
  77.4160000  45.6620000  63.2480000  55.3470000  69.5610000  91.5620000
  54.8160000  70.1680000  92.0770000  56.2260000  69.6330000  91.9360000
  48.1320000  80.0780000  82.3700000  47.8060000  79.5210000  81.6630000
  48.6800000  80.7280000  81.9310000  39.1070000  63.7930000  88.1640000
  39.5680000  64.0690000  87.3720000  38.2990000  64.3070000  88.1630000
  76.1650000  71.5880000  71.7260000  76.6740000  72.2690000  72.1660000
  76.8190000  71.0580000  71.2680000  61.5410000  84.9300000  84.9730000
  61.7260000  84.0090000  84.7860000  60.7320000  84.9130000  85.4840000
  71.6960000  53.9880000  96.4890000  71.6530000  54.9440000  96.4570000
  72.6330000  53.7910000  96.5000000  36.6680000  67.7800000  61.6750000
  36.2320000  68.6320000  61.6940000  37.6020000  67.9880000  61.6570000
  73.6960000  58.0650000  81.9680000  74.0610000  57.5350000  81.2600000
  72.8470000  57.6630000  82.1560000  61.5260000  63.4500000  94.1450000
  62.0360000  63.2910000  93.3510000  61.2410000  64.3610000  94.0690000
  88.9990000  78.9100000  79.5910000  89.0000000  79.8410000  79.8110000
  88.7250000  78.8800000  78.6740000  80.3930000  37.2620000  84.6290000
  81.1380000  37.7430000  84.2680000  79.6260000  37.7550000  84.3380000
  35.6780000  64.0730000  76.9630000  36.0630000  64.9470000  77.0130000
  34.7370000  64.2290000  76.8820000  37.8070000  40.5530000  56.3430000
  37.9620000  39.8580000  56.9820000  38.0290000  41.3600000  56.8080000
  70.2080000  50.9660000  91.2450000  70.9050000  50.6470000  90.6720000
  70.1720000  51.9080000  91.0770000  60.7740000  61.5480000  74.2510000
  61.6940000  61.7650000  74.3970000  60.3470000  62.3930000  74.1070000
  40.4700000  31.5840000  79.8800000  41.1840000  31.0000000  80.1350000
  39.7340000  31.3200000  80.4330000  60.3800000  73.9430000  96.4300000
  60.9150000  73.1520000  96.5000000  59.9530000  73.8680000  95.5770000
  71.5990000  33.5220000  56.9080000  71.6850000  33.8140000  56.0000000
  70.6730000  33.2990000  57.0020000  43.2230000  50.5530000  64.1670000
  42.4070000  50.0900000  64.3540000  43.8500000  49.8590000  63.9600000
  32.2600000  41.3940000  80.4290000  32.3650000  41.8980000  79.6220000
  33.0990000  41.4890000  80.8810000  52.3840000  42.8870000  81.0080000
  52.5850000  43.1470000  80.1090000  52.6510000  41.9690000  81.0580000
  51.3160000  74.9770000  64.3140000  51.4690000  74.5990000  65.1800000
  52.1860000  75.0300000  63.9180000  87.9040000  86.3980000  86.6720000
  88.7530000  86.1260000  86.3240000  87.3640000  85.6080000  86.6330000
  54.5100000  64.8380000  81.1810000  54.0430000  65.4460000  81.7540000
  53.9560000  64.7680000  80.4040000  70.4230000  57.9780000  85.2460000
  70.8760000  57.1920000  84.9430000  70.0360000  57.7240000  86.0840000
  36.1470000  39.7840000  85.0480000  36.8400000  39.3950000  84.5160000
  35.9220000  39.1030000  85.6840000  80.9040000  46.5360000  82.0350000
  81.4720000  47.2460000  81.7370000  81.4830000  45.7760000  82.0990000
  82.9740000  65.7340000  72.8700000  83.8430000  65.4420000  73.1430000
  82.7050000  65.1000000  72.2050000  33.5810000  85.5900000  56.0000000
  33.1760000  86.1520000  56.6610000  33.7820000  84.7780000  56.4660000
  76.3470000  70.0960000  61.4890000  75.9040000  69.2670000  61.3100000
  77.2600000  69.8520000  61.6450000  53.2810000  51.8530000  96.5000000
  53.2560000  51.4130000  95.6500000  54.0500000  52.4220000  96.4540000
  69.9440000  47.5260000  81.4890000  70.5420000  46.8480000  81.1740000
  70.3280000  48.3460000  81.1780000  61.5240000  85.6030000  72.4360000
  61.9240000  84.7360000  72.3760000  62.2290000  86.1710000  72.7500000
  86.6880000  88.6960000  59.4730000  86.3970000  89.0000000  58.6130000
  86.0100000  89.0000000  60.0770000  69.3930000  38.6450000  75.3780000
  69.3860000  38.9310000  76.2910000  70.3210000  38.6230000  75.1410000
  45.5390000  60.3170000  63.5500000  45.6340000  60.8940000  64.3080000
  45.2780000  59.4740000  63.9210000  67.3940000  43.5120000  72.4360000
  66.6040000  42.9770000  72.3590000  67.0730000  44.4140000  72.4280000
  61.9350000  86.0580000  67.0290000  61.6830000  86.4330000  66.1850000
  61.6570000  85.1430000  66.9770000  51.0090000  48.6940000  58.6250000
  51.1220000  47.7580000  58.4620000  50.1380000  48.8940000  58.2810000
  31.9370000  76.4570000  62.2150000  31.0000000  76.4060000  62.0280000
  32.2070000  75.5470000  62.3430000  45.6590000  48.4410000  90.8990000
  45.3630000  48.7490000  90.0430000  46.2420000  47.7080000  90.7010000
  82.5490000  33.7230000  86.9070000  81.6600000  33.6690000  87.2560000
  82.8130000  34.6310000  87.0590000  72.3040000  80.8260000  67.2830000
  71.7750000  80.0280000  67.2910000  73.2090000  80.5140000  67.2780000
  57.3490000  86.5750000  87.8490000  58.1710000  86.4690000  87.3700000
  57.5500000  86.2820000  88.7380000  88.2910000  59.7190000  93.4120000
  89.0000000  60.2650000  93.0720000  87.5900000  60.3380000  93.6190000
  86.4360000  49.8040000  86.2760000  86.4870000  50.5230000  85.6470000
  86.2690000  49.0280000  85.7410000  73.3730000  52.0790000  86.9110000
  74.2390000  51.9700000  87.3030000  73.2420000  53.0270000  86.8780000
  63.6670000  78.7320000  89.9570000  64.0430000  78.3360000  90.7430000
  64.1270000  78.3090000  89.2320000  80.1580000  56.7990000  78.1340000
  80.0180000  57.7430000  78.1920000  80.5580000  56.5630000  78.9720000
  59.0200000  42.2600000  76.3560000  58.1150000  42.4070000  76.0830000
  59.5480000  42.6360000  75.6510000  62.4450000  41.4000000  76.4480000
  62.5240000  40.4720000  76.2290000  61.5260000  41.5130000  76.6900000
  78.5040000  60.2430000  72.6550000  78.0500000  59.4130000  72.5120000
  79.4330000  60.0230000  72.5860000  34.9630000  82.6470000  60.8030000
  35.5000000  83.4080000  61.0210000  35.5080000  81.8940000  61.0360000
  68.7280000  56.5640000  96.3780000  69.3110000  57.3230000  96.3960000
  69.3090000  55.8130000  96.4980000  61.2840000  66.8450000  96.4100000
  60.4030000  66.4830000  96.5000000  61.8380000  66.0870000  96.2210000
  53.2810000  73.3270000  84.3860000  54.2210000  73.2060000  84.5180000
  53.1620000  74.2760000  84.3620000  67.1330000  49.1980000  93.8180000
  66.2740000  49.5940000  93.9630000  67.7370000  49.9410000  93.7880000
  84.9770000  60.8260000  63.4000000  84.6990000  59.9420000  63.1600000
  85.9320000  60.8040000  63.3360000  72.9770000  46.6700000  87.1730000
  72.1980000  46.4480000  86.6640000  73.6070000  45.9810000  86.9610000
  57.9070000  53.4680000  67.0910000  57.2910000  52.7370000  67.0560000
  58.3390000  53.4590000  66.2360000  59.1170000  75.7290000  86.5520000
  59.6020000  76.5430000  86.6850000  58.2030000  76.0030000  86.4810000
  67.6910000  43.8640000  78.3580000  67.0620000  44.5740000  78.4870000
  68.4750000  44.1490000  78.8280000  36.9950000  36.5470000  75.0830000
  37.9460000  36.5890000  74.9780000  36.7930000  35.6120000  75.0640000
  58.4870000  60.8330000  57.1530000  58.0700000  61.6570000  57.4030000
  59.3230000  60.8360000  57.6210000  43.8200000  57.4460000  89.0830000
  44.4640000  57.8330000  88.4900000  43.1910000  58.1490000  89.2470000
  74.0190000  69.2970000  81.6320000  74.4250000  68.4320000  81.6860000
  74.3900000  69.6880000  80.8410000  39.4420000  71.5940000  69.3310000
  39.5640000  72.3220000  69.9410000  38.7420000  71.8850000  68.7470000
  80.7360000  61.6360000  88.0520000  80.2270000  62.4420000  88.1230000
  81.0520000  61.4720000  88.9410000  65.5400000  68.3200000  88.6610000
  64.9120000  68.5230000  89.3550000  66.1550000  69.0530000  88.6720000
  31.0000000  59.1020000  71.9260000  31.3360000  59.9910000  72.0380000
  31.7820000  58.5480000  71.9300000  47.1430000  88.9580000  87.2000000
  47.7650000  88.2330000  87.1540000  46.8900000  89.0000000  88.1230000
  38.1220000  34.5020000  85.0740000  38.4800000  35.3290000  84.7520000
  37.2950000  34.3990000  84.6040000  61.2180000  82.9950000  68.7080000
  60.5060000  82.3570000  68.7430000  62.0150000  82.4640000  68.7080000
  57.8150000  75.1650000  95.5830000  57.4240000  75.9000000  95.1120000
  57.5630000  75.3040000  96.4960000  64.2890000  83.5810000  68.9260000
  63.7520000  84.3730000  68.9180000  65.1910000  83.9020000  68.9620000
  67.1290000  40.3830000  70.0840000  67.1130000  40.7670000  70.9600000
  66.2070000  40.2690000  69.8540000  44.2090000  36.8400000  93.0090000
  44.3010000  35.9440000  93.3320000  43.8040000  37.3160000  93.7340000
  62.4110000  33.4860000  82.7740000  62.2160000  33.5210000  83.7100000
  63.3440000  33.6950000  82.7150000  68.3150000  63.2070000  73.1370000
  68.9760000  63.8980000  73.1710000  67.9740000  63.2450000  72.2430000
  48.0710000  51.0660000  71.6180000  47.9560000  51.9430000  71.2520000
  48.8720000  50.7380000  71.2080000  51.6860000  41.2600000  59.3810000
  51.6710000  40.3300000  59.6080000  52.0030000  41.2820000  58.4780000
  38.2290000  56.4140000  70.7080000  37.6350000  57.1130000  70.9830000
  38.2820000  56.5050000  69.7560000  38.7460000  54.5620000  72.3050000
  38.6260000  54.0650000  71.4960000  38.3250000  54.0290000  72.9790000
  76.8260000  49.1900000  94.3680000  77.4320000  49.9170000  94.2250000
  75.9570000  49.5860000  94.3060000  54.9930000  33.7080000  70.9220000
  55.7780000  33.3560000  70.5020000  55.2710000  34.5500000  71.2830000
  81.3820000  74.4050000  76.2980000  81.2470000  73.5270000  75.9440000
  80.5010000  74.7740000  76.3680000  64.5780000  86.1480000  84.8180000
  63.9080000  86.7870000  85.0580000  64.1000000  85.3240000  84.7180000
  38.7020000  85.7150000  68.5900000  39.1660000  84.8790000  68.6390000
  39.3950000  86.3760000  68.6060000  45.5510000  61.7480000  92.8440000
  46.3170000  61.9550000  92.3090000  45.8650000  61.8110000  93.7460000
  65.2540000  73.2850000  93.5580000  65.7110000  72.8230000  92.8550000
  65.3940000  72.7410000  94.3340000  36.7220000  49.6760000  95.7010000
  36.7520000  50.2640000  96.4550000  36.6900000  50.2600000  94.9420000
  73.4700000  59.6550000  58.5540000  72.6570000  59.3520000  58.9560000
  73.2600000  60.5250000  58.2140000  62.1340000  75.8680000  72.7850000
  61.2460000  75.6290000  73.0500000  62.0100000  76.4750000  72.0550000
  76.2900000  34.4060000  62.0090000  75.6280000  34.3960000  61.3190000
  76.4890000  35.3330000  62.1380000  89.0000000  52.5220000  70.7020000
  88.9060000  53.1570000  71.4110000  88.5750000  51.7300000  71.0300000
  83.1980000  83.8680000  84.6390000  83.6850000  84.6650000  84.4330000
  82.2870000  84.1550000  84.7120000  36.9600000  49.1700000  91.7490000
  36.6500000  49.3260000  90.8570000  36.7760000  49.9870000  92.2130000
  81.0700000  84.3030000  67.1130000  81.8130000  84.6900000  66.6500000
  81.0410000  84.7670000  67.9500000  46.1130000  68.0630000  77.6630000
  46.8640000  67.6150000  77.2740000  45.4410000  67.3850000  77.7360000
  87.3910000  43.4910000  76.9730000  87.9920000  43.7500000  77.6710000
  86.8630000  44.2730000  76.8080000  69.5900000  64.6430000  80.7260000
  68.6450000  64.6220000  80.5780000  69.7680000  65.5380000  81.0160000
  40.4180000  42.2760000  84.5480000  41.1770000  41.7050000  84.4340000
  39.7790000  41.9580000  83.9100000  52.0190000  81.2370000  95.9210000
  51.2760000  81.0670000  96.5000000  52.7020000  81.5760000  96.5000000
  84.0770000  54.4930000  59.2430000  83.2100000  54.2580000  58.9130000
  84.6530000  54.4140000  58.4820000  73.2030000  58.4750000  56.2930000
  73.7800000  59.1800000  56.0000000  73.7700000  57.8960000  56.8020000
  52.8730000  37.3030000  75.3190000  53.7670000  37.4120000  74.9970000
  52.5570000  36.5090000  74.8860000  59.7000000  33.8350000  82.2000000
  58.8710000  34.3110000  82.2330000  60.0890000  34.0880000  81.3620000
  31.0510000  69.1960000  82.0420000  31.0220000  69.6060000  82.9060000
  31.0000000  68.2570000  82.2200000  75.7810000  73.2340000  64.8260000
  75.0570000  73.6260000  65.3150000  75.8580000  73.7730000  64.0380000
  73.8780000  33.0030000  73.4050000  73.9110000  32.2830000  74.0340000
  73.1560000  33.5540000  73.7090000  88.8440000  34.0860000  94.1460000
  89.0000000  35.0090000  93.9450000  87.8910000  33.9970000  94.1390000
  67.9360000  45.2760000  81.0010000  67.0100000  45.0740000  81.1310000
  67.9370000  46.1350000  80.5760000  51.2630000  87.4390000  90.4630000
  51.4420000  87.0340000  89.6150000  51.2180000  86.7040000  91.0750000
  70.1340000  44.2610000  96.5000000  71.0130000  44.6400000  96.5000000
  69.5470000  45.0170000  96.5000000  59.9140000  31.0000000  56.0000000
  60.8700000  31.0420000  56.0040000  59.6370000  31.7720000  56.4940000
  51.3280000  79.0800000  76.4060000  51.1370000  78.3030000  75.8810000
  51.7500000  78.7390000  77.1950000  88.9290000  88.9920000  61.4170000
  88.0040000  88.8240000  61.5950000  89.0000000  88.9600000  60.4630000
  77.4360000  68.9900000  82.9130000  77.7900000  68.6890000  82.0770000
  76.5710000  68.5840000  82.9690000  41.9730000  87.1150000  58.3170000
  41.9160000  86.8980000  59.2480000  42.8060000  86.7380000  58.0330000
  33.3270000  32.9230000  69.2040000  33.2180000  33.4490000  68.4120000
  33.9280000  32.2230000  68.9470000  85.4550000  55.7220000  64.5380000
  85.4320000  55.2800000  63.6890000  86.2860000  55.4490000  64.9280000
  75.5070000  31.5820000  58.7320000  76.2420000  31.0000000  58.5430000
  74.7400000  31.0080000  58.7320000  75.4390000  83.8140000  65.5840000
  75.3120000  84.2080000  64.7210000  74.9090000  84.3510000  66.1740000
  35.6720000  82.8560000  82.4180000  35.7250000  83.8110000  82.3760000
  35.2660000  82.6760000  83.2670000  67.7660000  86.6300000  61.8940000
  67.3030000  87.2290000  61.3090000  67.7180000  87.0490000  62.7540000
  74.2780000  51.1600000  96.5000000  74.8400000  51.9340000  96.4770000
  74.8820000  50.4220000  96.4140000  60.8590000  41.8110000  64.7350000
  60.1650000  41.9830000  64.0990000  61.1380000  42.6790000  65.0280000
  68.5580000  67.4650000  60.8960000  69.4900000  67.6420000  61.0230000
  68.4840000  66.5120000  60.9540000  46.0160000  48.0920000  96.1510000
  46.5840000  47.3650000  95.8950000  45.1560000  47.8580000  95.8030000
  78.6730000  40.8680000  67.8110000  79.3220000  40.1680000  67.7460000
  78.3950000  41.0230000  66.9080000  63.9740000  37.6880000  79.8840000
  64.0830000  38.1320000  80.7250000  63.0900000  37.3220000  79.9180000
  49.0440000  61.2660000  60.9350000  49.2240000  62.1130000  60.5270000
  49.8970000  60.9650000  61.2500000  39.9630000  39.5460000  58.4490000
  40.7040000  39.7660000  59.0120000  40.1490000  38.6580000  58.1430000
  68.0060000  39.8250000  56.0000000  67.9170000  40.7760000  56.0650000
  67.1340000  39.4880000  56.2070000  71.6700000  35.2340000  78.7020000
  72.1620000  34.4890000  78.3570000  72.2490000  35.6180000  79.3610000
  54.4460000  78.8500000  56.3840000  53.7230000  79.3450000  56.0010000
  54.8650000  79.4660000  56.9860000  51.5420000  64.3240000  75.6310000
  51.9980000  65.1620000  75.7080000  51.8400000  63.8190000  76.3890000
  42.0600000  52.2210000  66.7700000  42.5670000  51.4130000  66.6930000
  42.6880000  52.8680000  67.0940000  79.2840000  74.8330000  78.5540000
  78.7160000  74.2020000  78.9950000  78.7040000  75.5620000  78.3310000
  81.9430000  39.6750000  72.3710000  82.7100000  39.7690000  72.9360000
  81.3350000  39.1360000  72.8780000  85.3140000  46.7990000  86.9030000
  85.9020000  46.5940000  86.1770000  84.4350000  46.6880000  86.5390000
  74.6400000  72.8690000  67.7030000  74.9020000  73.7510000  67.9660000
  75.4630000  72.4260000  67.4940000  83.8080000  83.0030000  62.7730000
  84.1500000  82.1230000  62.6140000  84.5860000  83.5380000  62.9330000
  61.5050000  54.8430000  93.4940000  62.4330000  54.6320000  93.3900000
  61.0700000  53.9910000  93.5420000  75.9730000  57.4760000  58.4640000
  76.6530000  58.0850000  58.7530000  75.2270000  57.6620000  59.0350000
  57.6340000  33.7300000  56.7270000  57.3880000  32.8610000  56.4110000
  56.9100000  34.2970000  56.4610000  82.5260000  61.6560000  61.4410000
  82.7260000  62.2400000  62.1720000  82.8280000  60.7950000  61.7320000
  50.1230000  78.8280000  96.4960000  49.1720000  78.9280000  96.4990000
  50.2650000  77.8810000  96.4930000  62.2510000  69.3280000  96.3880000
  62.7500000  70.1430000  96.3370000  62.3800000  68.9140000  95.5330000
  33.3440000  81.9040000  93.3120000  33.1750000  82.4350000  92.5350000
  33.2740000  82.5190000  94.0430000  72.4030000  74.5970000  56.1120000
  72.4510000  75.5520000  56.1620000  71.4660000  74.4020000  56.1520000
  74.6020000  61.3750000  82.1300000  75.4510000  61.4700000  81.6980000
  74.2830000  60.5180000  81.8440000  65.2630000  60.3300000  81.0800000
  65.2100000  61.0190000  80.4170000  66.0040000  60.5830000  81.6300000
  88.6560000  71.8750000  93.9320000  88.9980000  72.7600000  93.8090000
  87.7520000  72.0040000  94.2190000  85.4590000  57.8980000  69.5380000
  85.2630000  58.7300000  69.1080000  85.2640000  58.0540000  70.4620000
  58.6440000  45.6650000  92.9120000  57.9160000  45.0460000  92.9640000
  58.8530000  45.7110000  91.9780000  45.5730000  43.5760000  94.5490000
  44.8800000  44.1190000  94.1730000  46.3820000  44.0440000  94.3430000
  40.0490000  86.3030000  62.4730000  40.5840000  87.0960000  62.4640000
  39.1460000  86.6230000  62.4810000  78.6500000  51.6490000  68.9200000
  78.4890000  51.5520000  67.9820000  79.4400000  52.1870000  68.9740000
  46.9810000  80.5620000  69.6840000  46.1500000  80.2540000  69.3210000
  47.6460000  80.2080000  69.0930000  44.1360000  37.1810000  68.9290000
  44.0210000  36.2750000  68.6430000  44.1600000  37.6880000  68.1170000
  84.6340000  66.0870000  84.7950000  84.3650000  65.5880000  84.0230000
  84.1550000  65.6850000  85.5190000  35.1670000  54.5970000  77.3800000
  34.5870000  55.0720000  77.9740000  34.9410000  54.9260000  76.5090000
  48.4770000  49.9870000  79.3050000  49.4330000  50.0300000  79.2770000
  48.2200000  50.7370000  79.8420000  31.4810000  39.9610000  67.3550000
  31.1660000  40.8130000  67.0530000  31.2270000  39.9250000  68.2780000
  52.0360000  72.7490000  89.7290000  52.4690000  72.3100000  90.4600000
  51.3560000  72.1350000  89.4500000  52.7370000  85.6000000  73.0590000
  53.4020000  85.4660000  73.7340000  52.2810000  84.7600000  73.0010000
  61.6410000  71.7920000  82.8390000  61.0410000  71.8180000  82.0940000
  62.3380000  72.4060000  82.6070000  73.1790000  82.7260000  69.2340000
  72.3110000  82.3270000  69.2820000  73.7840000  81.9840000  69.2170000
  76.9970000  71.4070000  80.8920000  76.4840000  70.9680000  81.5700000
  77.4610000  70.6980000  80.4450000  55.1580000  49.2820000  63.9350000
  55.4330000  48.7650000  63.1770000  54.5300000  48.7220000  64.3920000
  31.6330000  86.3980000  70.3930000  31.0000000  86.9860000  69.9810000
  31.1200000  85.6280000  70.6390000  51.9520000  38.4610000  72.9920000
  51.6110000  38.1640000  72.1490000  52.0400000  39.4100000  72.8940000
  67.3110000  49.3040000  80.8330000  67.9660000  49.1010000  81.5010000
  67.4580000  48.6520000  80.1470000  61.1570000  62.4760000  76.7350000
  60.7500000  63.3320000  76.8670000  62.0970000  62.6590000  76.7090000
  75.6340000  86.4450000  89.9230000  74.9330000  86.2530000  90.5450000
  75.4490000  85.8810000  89.1720000  43.5710000  60.2780000  65.5780000
  43.2870000  59.3640000  65.5610000  42.7560000  60.7820000  65.5890000
  36.7190000  79.6780000  85.9440000  37.6550000  79.6970000  85.7470000
  36.2940000  79.8940000  85.1130000  80.7680000  73.7070000  58.6460000
  80.4380000  72.8160000  58.7590000  80.0420000  74.2680000  58.9200000
  31.6470000  61.9750000  74.2020000  31.0040000  61.2670000  74.1620000
  32.4920000  61.5270000  74.2570000  46.2880000  81.7380000  80.9450000
  46.6150000  81.1970000  80.2260000  45.8770000  81.1160000  81.5450000
  40.9110000  41.0430000  56.3810000  40.3830000  41.7820000  56.0810000
  40.4860000  40.2740000  56.0000000  41.2010000  74.2470000  95.6860000
  41.8970000  73.5910000  95.7130000  40.7140000  74.1130000  96.5000000
  63.5600000  76.4070000  94.2620000  64.3650000  76.6740000  93.8200000
  62.8700000  76.9110000  93.8290000  84.2530000  86.3640000  74.1290000
  83.5490000  86.5210000  73.5000000  83.9100000  86.6930000  74.9610000
  88.9890000  86.4260000  56.0480000  88.0600000  86.6550000  56.0430000
  89.0000000  85.4680000  56.0320000  43.2620000  53.4360000  69.5100000
  42.9360000  52.5380000  69.5640000  42.9620000  53.8500000  70.3190000
  33.8710000  50.4610000  96.5000000  34.0000000  50.8240000  95.6240000
  33.5100000  49.5870000  96.3470000  47.5200000  84.6110000  79.7160000
  46.5920000  84.8440000  79.7100000  47.5280000  83.6540000  79.7160000
  49.7310000  33.7500000  95.8510000  49.0360000  33.8530000  96.5000000
  49.2700000  33.6840000  95.0140000  52.1800000  34.3110000  72.2480000
  51.2690000  34.1040000  72.4520000  52.2060000  35.2670000  72.2060000
  37.4300000  60.9390000  94.2510000  36.5360000  60.6780000  94.0310000
  37.7770000  60.2040000  94.7570000  84.0050000  35.5090000  66.7230000
  84.1590000  34.6280000  67.0640000  83.0750000  35.5190000  66.4950000
  53.7050000  83.3090000  84.2050000  52.7870000  83.1190000  84.3950000
  54.1290000  82.4510000  84.1870000  88.1800000  77.1550000  62.3750000
  89.0000000  77.6480000  62.3780000  87.4970000  77.8250000  62.3900000
  37.9240000  47.8160000  94.0320000  38.4540000  48.6130000  94.0230000
  38.5630000  47.1030000  94.0360000  68.8810000  67.1860000  92.1210000
  69.6110000  67.6630000  91.7270000  68.8300000  66.3700000  91.6220000
  70.3310000  48.3650000  76.1050000  70.8720000  47.6040000  76.3160000
  70.1400000  48.2720000  75.1720000  85.7050000  80.2410000  62.0800000
  86.0690000  79.8230000  62.8600000  85.8760000  79.6180000  61.3730000
  69.3220000  50.0640000  79.2520000  68.6680000  50.1610000  78.5610000
  70.1050000  49.7500000  78.7990000  79.4380000  60.2270000  91.9420000
  79.6800000  61.1330000  91.7530000  79.5590000  60.1380000  92.8880000
  76.7370000  33.3830000  71.3440000  77.3690000  33.6340000  72.0170000
  76.5570000  34.1950000  70.8680000  68.0210000  53.4430000  69.1680000
  68.7510000  53.3740000  68.5540000  68.4360000  53.5860000  70.0190000
  59.7680000  86.0250000  75.7420000  60.5090000  86.1890000  75.1590000
  59.1320000  86.7050000  75.5190000  42.6100000  61.5660000  78.6080000
  43.4500000  62.0220000  78.6520000  41.9560000  62.2650000  78.6060000
  50.5600000  81.7210000  71.2880000  51.3460000  82.1840000  70.9990000
  50.5640000  80.9050000  70.7880000  73.4120000  52.2860000  56.0850000
  72.8010000  53.0180000  56.0000000  74.1400000  52.6390000  56.5970000
  62.8590000  48.8800000  87.1730000  63.3170000  49.6860000  87.4110000
  62.5400000  48.5300000  88.0060000  82.2820000  66.2360000  61.6690000
  82.0340000  67.1230000  61.9270000  83.1540000  66.1110000  62.0460000
  63.9050000  66.0560000  86.0770000  63.4740000  66.8060000  85.6700000
  64.7940000  66.3610000  86.2620000  79.8440000  34.5430000  66.3660000
  79.6690000  33.8950000  65.6840000  79.2080000  34.3440000  67.0550000
  60.0940000  52.5960000  68.5990000  59.6110000  51.9510000  69.1150000
  61.0150000  52.3930000  68.7610000  55.2960000  86.0160000  56.0600000
  54.8590000  85.1670000  56.0000000  54.5860000  86.6410000  56.2110000
  31.8870000  70.9210000  86.2200000  32.4650000  70.3750000  86.7530000
  31.4910000  70.3120000  85.5950000  72.6850000  57.8920000  64.8020000
  72.1860000  58.5490000  65.2850000  72.9820000  58.3470000  64.0140000
  41.0470000  52.7890000  77.0370000  40.1960000  53.1970000  77.1960000
  40.9830000  51.9310000  77.4560000  67.4230000  31.9410000  63.9130000
  66.5600000  32.3480000  63.8380000  67.2450000  31.0000000  63.9150000
  83.0770000  44.3090000  88.5920000  83.2900000  45.1770000  88.9340000
  83.1880000  44.3900000  87.6440000  66.2190000  81.4250000  79.0400000
  65.8530000  81.5940000  78.1720000  65.4910000  81.5790000  79.6420000
  82.7900000  38.5120000  96.2290000  82.8170000  39.0660000  95.4490000
  81.8710000  38.5250000  96.5000000  50.7160000  65.5700000  60.1250000
  50.9900000  66.4810000  60.2360000  49.9880000  65.6130000  59.5030000
  48.9670000  79.2700000  65.7190000  48.4900000  79.5160000  64.9260000
  48.5190000  79.7390000  66.4240000  54.3030000  43.1610000  96.4900000
  54.0380000  43.1390000  95.5710000  55.0890000  43.7090000  96.5000000
  31.6740000  43.9540000  73.6860000  31.0000000  43.7440000  73.0410000
  31.4520000  43.4190000  74.4490000  86.5310000  41.8550000  75.2900000
  86.1770000  41.4770000  76.0950000  85.9260000  41.5700000  74.6050000
  60.7980000  62.9340000  56.0070000  59.8830000  62.6550000  56.0000000
  61.2980000  62.1170000  56.0080000  37.4770000  69.7350000  59.8270000
  36.8360000  70.4200000  60.0210000  38.3070000  70.2030000  59.7340000
  58.9640000  61.4810000  94.3190000  59.5880000  60.7890000  94.0990000
  58.1140000  61.1320000  94.0490000  69.1180000  37.4360000  69.1040000
  68.8710000  36.5180000  68.9930000  68.9640000  37.6150000  70.0320000
  71.6630000  36.0120000  64.2900000  72.2020000  35.2240000  64.3560000
  71.5940000  36.3310000  65.1900000  63.2900000  77.9990000  96.4740000
  62.4670000  78.4860000  96.4990000  63.9690000  78.6740000  96.4830000
  62.4070000  60.5190000  78.9940000  62.3850000  61.0560000  79.7860000
  61.6170000  60.7670000  78.5140000  50.9470000  68.5060000  62.9780000
  51.1380000  68.4430000  63.9140000  50.8180000  67.5990000  62.6980000
  85.9620000  31.9190000  66.1770000  85.8490000  31.7470000  65.2430000
  85.2020000  32.4500000  66.4170000  47.3660000  44.5170000  69.8670000
  47.6820000  45.2420000  69.3290000  46.4160000  44.5220000  69.7430000
  74.9500000  45.4550000  60.8430000  75.8420000  45.2520000  61.1240000
  74.7540000  46.2970000  61.2550000  69.3210000  79.3600000  67.2240000
  68.5740000  78.8550000  66.9040000  69.6460000  78.8600000  67.9730000
  72.4370000  39.8220000  85.8790000  73.0530000  40.4830000  85.5640000
  72.3030000  39.2420000  85.1290000  42.0410000  84.6060000  62.7380000
  42.0090000  84.0230000  61.9800000  42.6110000  84.1570000  63.3630000
  44.2790000  54.1010000  96.5000000  45.1570000  53.7210000  96.5000000
  43.6910000  53.3450000  96.5000000  40.7610000  71.4170000  76.0050000
  41.6520000  71.4320000  76.3550000  40.3470000  72.2000000  76.3690000
  54.9410000  46.5860000  56.2680000  54.6050000  46.5860000  57.1640000
  54.9090000  45.6670000  56.0000000  85.7900000  44.0790000  88.4090000
  86.4300000  43.8220000  89.0720000  86.3170000  44.4010000  87.6780000
  49.0850000  50.9360000  76.7670000  48.9110000  51.8760000  76.7400000
  48.2190000  50.5320000  76.8250000  70.7050000  59.1350000  68.4650000
  70.9040000  59.0700000  67.5310000  69.7680000  59.3280000  68.4980000
  59.8770000  49.0990000  58.3650000  59.8840000  50.0480000  58.2460000
  58.9510000  48.8750000  58.4610000  79.2250000  83.8620000  93.0450000
  79.9740000  83.6410000  93.5980000  79.4830000  84.6710000  92.6030000
  47.6010000  31.5090000  87.8690000  48.3380000  31.0000000  88.2090000
  47.2820000  31.0000000  87.1240000  33.1550000  46.9660000  86.0660000
  32.9160000  47.3300000  86.9180000  33.2550000  47.7300000  85.4970000
  58.7900000  46.5400000  83.4080000  58.1190000  46.7950000  84.0420000
  58.8290000  47.2730000  82.7930000  49.2540000  52.7180000  93.2760000
  49.4500000  51.8010000  93.4690000  49.9720000  53.0020000  92.7090000
  63.3980000  70.2320000  80.4510000  62.4770000  69.9730000  80.4440000
  63.5770000  70.5100000  79.5530000  55.3530000  44.9060000  77.2730000
  55.6280000  44.4840000  76.4600000  54.5350000  45.3510000  77.0490000
  51.8930000  69.0070000  75.2880000  52.4750000  69.4050000  75.9340000
  51.3020000  68.4570000  75.8030000  52.7060000  74.0510000  87.0670000
  52.6470000  73.0970000  87.0200000  53.6460000  74.2330000  87.0800000
  87.9070000  67.6870000  85.2330000  88.8460000  67.8360000  85.1200000
  87.6550000  67.1570000  84.4770000  88.8540000  55.3590000  57.0710000
  89.0000000  54.4450000  57.3140000  88.9830000  55.3790000  56.1220000
  36.2560000  87.1110000  64.4440000  37.0530000  87.6400000  64.4070000
  36.5690000  86.2070000  64.4660000  52.0170000  51.7860000  75.4250000
  52.4800000  52.5750000  75.1440000  52.7090000  51.1920000  75.7170000
  78.0900000  37.3560000  78.5320000  77.5350000  37.8420000  79.1420000
  78.5120000  38.0320000  78.0010000  82.6860000  83.9850000  81.7760000
  83.4820000  83.6260000  82.1680000  82.5730000  84.8360000  82.2000000
  70.8070000  71.5250000  80.6840000  70.7170000  71.7860000  79.7680000
  71.0290000  70.5940000  80.6480000  67.1750000  77.0780000  85.2870000
  67.3010000  77.8740000  84.7710000  66.9590000  76.4050000  84.6410000
  68.3090000  85.1670000  91.7230000  68.9980000  85.1120000  91.0610000
  68.5350000  85.9390000  92.2420000  31.0790000  54.1400000  74.4460000
  31.0000000  55.0860000  74.3290000  31.5050000  53.8330000  73.6460000
  81.5020000  74.7820000  85.8580000  81.9490000  74.1130000  85.3390000
  82.1810000  75.4300000  86.0490000  77.9980000  45.5010000  69.1180000
  78.6240000  44.9340000  69.5680000  77.1570000  45.0520000  69.2140000
  64.1760000  74.0820000  88.4430000  64.0420000  74.7850000  89.0790000
  63.8500000  73.2960000  88.8830000  80.1490000  57.1750000  93.0210000
  80.1310000  57.6240000  93.8660000  81.0160000  57.3700000  92.6640000
  67.5950000  72.9220000  79.9820000  68.4000000  73.3660000  79.7170000
  67.1930000  73.5120000  80.6200000  74.2800000  33.1970000  63.2950000
  74.2670000  34.1410000  63.4540000  74.5110000  32.8150000  64.1420000
  52.7720000  43.2060000  84.2160000  53.4020000  43.7170000  84.7230000
  53.1940000  43.0810000  83.3650000  76.0610000  68.6890000  91.8960000
  75.6410000  67.9790000  92.3820000  76.9720000  68.4090000  91.8010000
  49.9300000  86.4950000  93.6700000  50.5050000  87.1700000  94.0290000
  49.2200000  86.4210000  94.3080000  71.5830000  41.3560000  60.8540000
  71.9650000  41.4940000  61.7210000  71.5450000  40.4050000  60.7580000
  37.5420000  69.3760000  70.0000000  36.8680000  69.3110000  69.3230000
  37.5240000  70.2950000  70.2690000  55.1770000  74.2580000  96.5000000
  55.5400000  74.1210000  95.6250000  54.2540000  74.0140000  96.4180000
  42.5150000  85.5480000  96.4110000  41.7060000  86.0550000  96.3410000
  42.2240000  84.6370000  96.4580000  41.8790000  78.2830000  72.2870000
  41.4440000  77.6530000  72.8610000  41.3820000  78.2460000  71.4700000
  84.3880000  44.6160000  91.9070000  83.9950000  45.4300000  91.5920000
  84.6230000  44.1390000  91.1110000  33.6100000  45.1160000  87.8480000
  34.3770000  45.6500000  88.0530000  33.9580000  44.2320000  87.7270000
  86.9890000  85.8960000  78.9530000  87.7520000  86.4280000  79.1760000
  86.3050000  86.5330000  78.7450000  51.5080000  79.5140000  88.2360000
  50.5550000  79.5970000  88.2210000  51.8280000  80.4160000  88.2540000
  68.0430000  38.6700000  61.3350000  68.7420000  38.5780000  61.9820000
  67.4430000  39.3090000  61.7200000  43.5710000  82.5480000  70.5170000
  43.5180000  83.2130000  69.8310000  44.4960000  82.5330000  70.7650000
  50.7030000  60.7190000  87.8300000  49.9280000  60.6520000  88.3860000
  51.0680000  61.5810000  88.0290000  33.8820000  50.2860000  60.8030000
  34.8290000  50.2010000  60.9100000  33.6160000  49.4790000  60.3610000
  48.5740000  86.8980000  89.1100000  47.6300000  86.9050000  89.2690000
  48.8000000  85.9690000  89.0460000  62.4600000  57.5140000  78.7940000
  62.0620000  56.6500000  78.9000000  61.7170000  58.1180000  78.7660000
  53.3360000  66.1910000  63.3070000  53.2290000  67.1050000  63.5700000
  52.8710000  66.1250000  62.4720000  56.2850000  55.1080000  63.7400000
  56.8750000  55.8550000  63.8390000  55.5350000  55.3200000  64.2980000
  35.2980000  35.2890000  69.8640000  35.1870000  34.8700000  69.0110000
  35.7070000  34.6180000  70.4100000  38.2010000  77.3740000  86.4910000
  38.9700000  76.9770000  86.8980000  37.6440000  77.6290000  87.2270000
  74.9650000  44.4490000  67.4500000  75.6430000  45.0540000  67.1500000
  75.3390000  43.5790000  67.3090000  75.0360000  71.0630000  78.7550000
  74.5080000  71.6610000  79.2850000  74.7780000  71.2510000  77.8520000
  35.2710000  63.9550000  94.0240000  36.0840000  63.5170000  94.2740000
  35.4030000  64.2030000  93.1090000  46.0880000  67.5110000  69.8320000
  45.6300000  67.4480000  70.6700000  46.8850000  66.9950000  69.9550000
  34.1350000  80.1440000  70.2400000  33.9070000  80.3500000  69.3340000
  33.6360000  80.7730000  70.7620000  49.0720000  88.4920000  65.2660000
  49.9070000  88.0510000  65.4210000  48.4680000  87.7870000  65.0310000
  38.6740000  31.0000000  85.6480000  38.4290000  31.1850000  84.7410000
  38.3420000  31.7490000  86.1430000  31.0170000  73.3820000  63.5820000
  31.0000000  73.1300000  62.6590000  31.8860000  73.1200000  63.8870000
  61.3740000  87.2020000  79.9840000  60.5310000  86.8430000  80.2600000
  61.5720000  86.7480000  79.1650000  43.7760000  85.5200000  87.6290000
  44.4380000  85.2430000  86.9960000  42.9500000  85.1970000  87.2680000
  66.6430000  52.9770000  94.7810000  65.7420000  53.1620000  95.0470000
  66.6220000  52.0690000  94.4790000  44.0470000  73.7900000  75.2110000
  44.3670000  74.5470000  75.7010000  43.0930000  73.8450000  75.2800000
  65.4060000  49.1170000  59.3790000  66.1220000  48.7940000  58.8320000
  64.7900000  48.3850000  59.4250000  81.1590000  87.1000000  66.4860000
  82.1120000  87.1700000  66.5490000  80.9070000  87.7920000  65.8750000
  34.3720000  65.8100000  74.5520000  35.0930000  65.1820000  74.5980000
  34.7890000  66.6360000  74.3060000  49.9970000  71.5520000  75.0030000
  49.2950000  70.9190000  74.8540000  49.6760000  72.1010000  75.7200000
  46.8130000  49.9840000  64.5760000  46.1930000  50.6720000  64.3360000
  46.5920000  49.7680000  65.4830000  42.7360000  61.9100000  62.9350000
  43.1800000  62.3300000  63.6720000  42.4890000  62.6330000  62.3590000
  37.8950000  59.0040000  83.7100000  37.8740000  59.6090000  84.4510000
  37.7980000  58.1370000  84.1060000  39.1920000  37.5840000  96.4980000
  39.6600000  36.7500000  96.4990000  38.2660000  37.3390000  96.5000000
  44.2400000  79.8340000  61.0090000  44.0560000  80.7740000  61.0190000
  43.3770000  79.4210000  60.9930000  50.6380000  71.8090000  70.0710000
  51.1410000  72.6110000  70.2120000  49.7580000  72.0200000  70.3840000
  76.1760000  44.3300000  90.2690000  77.0380000  43.9180000  90.3250000
  75.5680000  43.6000000  90.1540000  52.3380000  68.1410000  83.4940000
  52.2980000  67.1900000  83.3900000  51.9990000  68.3000000  84.3760000
  43.8820000  61.8780000  96.4730000  42.9290000  61.7940000  96.4490000
  44.0400000  62.8220000  96.5000000  67.2040000  60.8060000  90.4280000
  67.5110000  61.0560000  91.2990000  67.2950000  61.6020000  89.9030000
  80.2380000  60.6060000  79.6490000  79.7150000  59.8090000  79.5680000
  80.3060000  60.9400000  78.7540000  69.3820000  46.2250000  70.5350000
  69.2900000  45.3780000  70.9710000  70.3010000  46.2590000  70.2680000
  37.2690000  65.1360000  96.4980000  37.4320000  64.2080000  96.3300000
  36.7440000  65.4270000  95.7520000  44.8270000  44.7170000  66.7060000
  44.3390000  45.4920000  66.4280000  45.7460000  44.9820000  66.6590000
  44.1580000  80.0010000  80.0730000  44.0000000  80.9260000  79.8860000
  43.7940000  79.8680000  80.9490000  63.5770000  60.4550000  63.8840000
  64.5300000  60.5430000  63.8860000  63.2870000  61.0030000  63.1550000
  61.9650000  72.8960000  59.2080000  61.5260000  72.9700000  58.3610000
  62.3410000  73.7630000  59.3610000  35.5170000  65.8080000  65.9290000
  35.2420000  66.7200000  66.0210000  35.1130000  65.3600000  66.6720000
  79.4090000  70.7290000  82.2590000  79.4760000  70.9690000  83.1830000
  80.0450000  70.0210000  82.1490000  85.7540000  73.0720000  72.5630000
  85.6990000  72.9250000  73.5070000  86.6910000  73.0330000  72.3690000
  81.6280000  74.7130000  88.9310000  81.8400000  74.0900000  88.2360000
  81.3070000  75.4880000  88.4680000  37.1070000  48.1120000  61.0260000
  36.7980000  48.5890000  61.7960000  38.0520000  48.2660000  61.0110000
  77.8140000  64.6070000  71.5600000  77.3040000  63.9840000  71.0430000
  78.4000000  65.0220000  70.9270000  64.2090000  31.9590000  89.9450000
  64.2030000  31.0150000  89.7870000  65.1290000  32.1700000  90.1060000
  75.8600000  68.0750000  85.3110000  75.0530000  68.4800000  84.9930000
  75.7040000  67.9320000  86.2450000  60.5120000  62.1280000  62.4370000
  61.0910000  61.7730000  61.7630000  60.9330000  62.9440000  62.7090000
  79.1580000  68.0600000  75.7440000  78.2730000  68.3610000  75.5410000
  79.7040000  68.4380000  75.0540000  74.6650000  63.6690000  85.6550000
  74.6270000  62.8900000  85.1000000  73.7660000  63.7850000  85.9650000
  55.5130000  78.9650000  63.2030000  55.1470000  79.3210000  62.3940000
  55.0330000  78.1480000  63.3450000  51.3850000  43.0830000  67.3620000
  50.4630000  42.8540000  67.2490000  51.4010000  44.0400000  67.3270000
  63.0740000  46.9690000  93.5720000  63.0080000  47.9230000  93.5410000
  64.0150000  46.7930000  93.5530000  80.5670000  31.5750000  90.8200000
  81.2690000  31.0290000  90.4670000  80.1000000  31.0030000  91.4300000
  71.2630000  88.9070000  66.7120000  72.1590000  88.8610000  67.0430000
  71.3620000  88.9930000  65.7630000  69.2120000  68.2990000  69.2010000
  68.4060000  68.7640000  69.4230000  68.9580000  67.3750000  69.1840000
  71.6580000  31.0380000  56.5890000  72.4150000  31.0060000  56.0050000
  70.9010000  31.0000000  56.0030000  69.1230000  55.4410000  58.4300000
  70.0470000  55.3130000  58.6430000  69.0960000  55.4450000  57.4730000
  48.8610000  69.6170000  69.3060000  48.6490000  68.8110000  69.7750000
  48.1680000  70.2290000  69.5540000  35.5330000  31.0000000  89.9480000
  35.5820000  31.0550000  88.9940000  34.5950000  31.0000000  90.1410000
  36.5620000  67.1740000  89.6160000  36.1660000  68.0370000  89.7390000
  37.4510000  67.3610000  89.3100000  54.3570000  33.2950000  56.8950000
  54.0350000  33.3980000  56.0000000  53.6260000  33.5730000  57.4470000
  89.0000000  68.9580000  95.6920000  88.3280000  68.7170000  95.0560000
  88.7350000  68.5170000  96.5000000  42.9840000  33.8010000  83.7530000
  43.0910000  34.2260000  84.6030000  42.4080000  34.3870000  83.2620000
  80.7240000  87.9450000  93.4400000  80.1120000  87.4910000  92.8610000
  80.9490000  88.7480000  92.9700000  47.9000000  53.7540000  89.5430000
  48.4370000  53.1440000  90.0490000  47.0030000  53.5780000  89.8290000
  54.3220000  49.9030000  56.0000000  54.1680000  49.1990000  56.6290000
  54.9040000  50.5110000  56.4570000  82.1470000  79.1160000  60.1720000
  82.4840000  78.2210000  60.2090000  81.1960000  79.0170000  60.2380000
  56.2570000  85.5150000  85.8650000  55.8720000  84.9860000  85.1680000
  56.4730000  86.3470000  85.4430000  63.1710000  86.3560000  60.8360000
  64.0700000  86.5380000  60.5620000  63.1870000  85.4410000  61.1180000
  55.7360000  84.9220000  93.4450000  54.8650000  85.3190000  93.4630000
  55.6320000  84.0950000  93.9150000  56.1670000  65.0190000  83.9200000
  56.1780000  64.4440000  83.1550000  55.2450000  65.2500000  84.0330000
  34.2170000  77.0960000  79.9220000  34.2770000  77.3080000  78.9910000
  33.4580000  77.5900000  80.2330000  38.7290000  71.5640000  74.1050000
  39.1370000  70.7160000  73.9320000  38.2550000  71.4390000  74.9270000
  47.1830000  40.3950000  73.3150000  47.4380000  40.3200000  74.2350000
  46.3580000  40.8810000  73.3340000  88.2000000  79.0920000  64.8540000
  88.6180000  79.4480000  64.0700000  88.7900000  78.3970000  65.1460000
  89.0000000  83.4610000  87.1240000  89.0000000  83.4720000  86.1670000
  89.0000000  82.5320000  87.3530000  74.2150000  87.9800000  88.3590000
  73.9430000  88.8970000  88.3300000  73.3970000  87.4900000  88.4460000
  46.8590000  60.2160000  70.5960000  46.6220000  60.7270000  71.3700000
  47.2070000  60.8610000  69.9800000  86.3470000  76.2990000  90.4530000
  86.4500000  76.7300000  91.3010000  85.6200000  75.6890000  90.5800000
  72.4820000  70.1220000  76.2530000  71.7660000  69.4980000  76.1370000
  73.2300000  69.7120000  75.8160000  72.9550000  48.4410000  79.5150000
  73.0170000  49.3920000  79.4320000  72.0490000  48.2380000  79.2800000
  35.6930000  46.6250000  70.6780000  34.8400000  46.1940000  70.7280000
  35.4870000  47.5590000  70.6290000  78.9430000  68.1450000  60.9390000
  79.4280000  68.4670000  61.6990000  79.0750000  67.1970000  60.9540000
  70.3690000  39.8640000  81.5690000  70.9840000  39.8680000  80.8360000
  69.8050000  40.6230000  81.4130000  68.9400000  34.8160000  91.4840000
  68.5590000  35.6810000  91.6350000  69.3750000  34.8910000  90.6350000
  76.5750000  48.0790000  91.8710000  76.7620000  47.1400000  91.8920000
  75.6290000  48.1380000  92.0130000  79.7140000  89.0000000  77.6440000
  79.9820000  88.6720000  76.7860000  78.7780000  88.8040000  77.6950000
  40.0510000  66.5320000  82.5850000  39.4790000  66.1880000  81.8990000
  40.0000000  67.4830000  82.4860000  52.7250000  62.2590000  85.9190000
  53.1710000  63.0820000  86.1170000  51.9660000  62.5170000  85.3950000
  31.3940000  66.3420000  90.7650000  31.0000000  67.0730000  91.2400000
  31.0000000  66.3830000  89.8930000  47.4680000  70.9700000  77.7560000
  46.6090000  70.5520000  77.6910000  47.9150000  70.7260000  76.9460000
  72.5490000  78.4260000  89.0270000  71.6540000  78.1040000  89.1330000
  72.9780000  77.7670000  88.4800000  45.6690000  83.3510000  92.2430000
  44.9450000  83.7060000  91.7290000  45.4420000  82.4300000  92.3750000
  81.6450000  40.6100000  58.1500000  82.5230000  40.2890000  58.3550000
  81.3220000  40.9710000  58.9750000  66.2860000  37.6310000  59.8920000
  65.7630000  37.0410000  60.4350000  65.6520000  38.0330000  59.2970000
  52.6880000  31.0050000  56.9760000  51.8330000  31.0040000  57.4060000
  52.4860000  31.0030000  56.0400000  82.5120000  86.3140000  91.5790000
  81.9590000  85.5400000  91.6800000  82.2710000  86.6710000  90.7240000
  83.4480000  57.1760000  63.0730000  82.9770000  57.7670000  63.6600000
  84.3600000  57.4660000  63.1210000  47.5260000  35.4810000  84.4180000
  47.8550000  34.6000000  84.2400000  48.2980000  36.0430000  84.3510000
  77.1260000  40.2980000  78.8070000  78.0290000  40.6160000  78.8040000
  76.5920000  41.0930000  78.8140000  48.9260000  49.5610000  56.0000000
  47.9760000  49.4820000  56.0810000  49.1210000  50.4450000  56.3100000
  75.3850000  47.0300000  57.7680000  74.7850000  47.6640000  58.1590000
  76.1260000  47.5550000  57.4650000  46.9170000  83.4650000  71.0770000
  46.3990000  84.1510000  70.6570000  47.3640000  83.9090000  71.7980000
  33.5030000  35.4890000  66.9810000  33.9900000  34.9300000  66.3750000
  33.7690000  36.3800000  66.7520000  73.4470000  76.6510000  83.1860000
  72.5810000  76.9880000  83.4130000  73.4110000  76.5130000  82.2400000
  80.7940000  59.7800000  69.4990000  80.3520000  59.2200000  70.1380000
  80.5070000  60.6670000  69.7190000  79.4700000  86.1050000  76.9640000
  79.1390000  85.3930000  77.5110000  78.6830000  86.5410000  76.6350000
  38.3180000  52.6440000  92.5490000  38.5660000  51.9550000  93.1650000
  38.6170000  52.3250000  91.6980000  63.9690000  71.9630000  85.1280000
  63.1310000  71.5390000  84.9490000  64.2380000  72.3300000  84.2850000
  50.5390000  69.4340000  67.2890000  50.2800000  70.3540000  67.2450000
  50.2540000  69.0640000  66.4520000  62.8240000  47.3840000  70.5730000
  63.2120000  46.5170000  70.4570000  63.5710000  47.9830000  70.5720000
  33.4490000  54.6260000  58.0540000  34.4020000  54.5810000  58.1270000
  33.1550000  53.7250000  58.1920000  44.3050000  46.5160000  89.6610000
  44.1530000  45.6290000  89.9860000  43.4290000  46.8830000  89.5420000
  71.2800000  40.5660000  76.6520000  70.8290000  41.3580000  76.3580000
  71.4400000  40.7130000  77.5840000  50.4980000  34.4710000  90.2020000
  51.0890000  34.9940000  89.6620000  51.0090000  33.6970000  90.4380000
  35.1570000  84.4660000  78.2580000  34.4130000  84.4530000  78.8590000
  35.9240000  84.3740000  78.8230000  36.4720000  63.0920000  79.1590000
  36.6900000  62.1670000  79.2730000  37.3200000  63.5330000  79.1070000
  46.7910000  70.0660000  71.7810000  46.8500000  69.1460000  72.0400000
  47.2240000  70.5430000  72.4890000  50.5680000  47.5360000  85.6190000
  50.5490000  48.4810000  85.4700000  51.4920000  47.3350000  85.7690000
  49.8250000  82.9910000  61.7120000  50.7600000  83.1260000  61.8640000
  49.7820000  82.5280000  60.8750000  45.7880000  45.2180000  75.0680000
  45.4670000  45.1600000  75.9670000  46.5240000  45.8290000  75.1140000
  55.5700000  64.8080000  64.4200000  55.6410000  63.8560000  64.4890000
  56.3880000  65.1370000  64.7920000  58.6210000  31.0170000  95.5710000
  57.8190000  31.2830000  95.1220000  58.3870000  31.0180000  96.5000000
  84.9030000  68.4220000  82.8200000  85.5510000  67.7180000  82.7980000
  84.7800000  68.6070000  83.7510000  86.0970000  85.5350000  62.4710000
  86.2090000  85.5410000  61.5200000  86.5470000  86.3250000  62.7700000
  76.3700000  55.0510000  80.5320000  77.2510000  55.0230000  80.9060000
  76.2380000  55.9690000  80.2960000  53.2640000  66.4490000  69.9540000
  53.8810000  66.5700000  69.2320000  53.4880000  67.1400000  70.5790000
  68.6700000  33.4980000  61.9590000  67.8710000  33.2840000  61.4780000
  69.3550000  33.5160000  61.2900000  49.1400000  62.0250000  85.9760000
  49.5800000  62.8710000  86.0520000  49.6680000  61.5340000  85.3460000
  57.3200000  43.7110000  79.0480000  57.7850000  42.9860000  79.4660000
  57.1420000  43.4010000  78.1600000  42.3850000  48.4000000  58.0610000
  41.9870000  49.2590000  57.9210000  43.3040000  48.5890000  58.2530000
  69.8720000  45.6740000  59.0010000  70.0720000  44.8210000  58.6150000
  68.9870000  45.8730000  58.6950000  31.0000000  32.0310000  78.5900000
  31.6820000  32.6780000  78.4120000  31.4390000  31.3560000  79.1090000
  44.6670000  43.8320000  58.5470000  45.0040000  44.6180000  58.9780000
  45.4340000  43.2690000  58.4410000  55.8020000  60.0530000  88.4650000
  55.2090000  59.3770000  88.7910000  55.4060000  60.8770000  88.7490000
  33.5200000  69.1370000  90.2080000  32.7800000  69.5160000  90.6820000
  34.2540000  69.7200000  90.4040000  83.1540000  60.1540000  74.0500000
  82.2970000  60.5810000  74.0490000  83.7820000  60.8770000  74.0680000
  31.0000000  83.6910000  93.9010000  31.0270000  83.8690000  92.9610000
  31.0010000  84.5560000  94.3100000  58.2310000  57.0770000  87.9140000
  58.7880000  56.4400000  87.4660000  57.3420000  56.7400000  87.8000000
  37.7090000  41.9630000  74.7940000  37.8480000  42.7600000  75.3060000
  37.5680000  41.2790000  75.4490000  73.5910000  40.4070000  80.1630000
  73.0830000  41.1690000  80.4410000  73.7500000  40.5520000  79.2300000
  46.9380000  33.6900000  80.9430000  46.5190000  33.3950000  80.1350000
  47.0800000  34.6280000  80.8100000  75.1810000  46.8960000  80.0910000
  75.2560000  47.4780000  79.3350000  75.0480000  46.0270000  79.7130000
  83.7510000  38.4180000  76.6290000  83.8400000  37.4850000  76.4370000
  83.9650000  38.4930000  77.5590000  41.0130000  31.8360000  59.4200000
  40.5000000  32.3990000  59.9990000  40.4360000  31.0950000  59.2320000
  67.0940000  58.1420000  90.3090000  67.1490000  57.2210000  90.0550000
  66.2400000  58.4290000  89.9840000  61.3050000  77.8140000  77.2760000
  60.4730000  77.8600000  76.8050000  61.4650000  76.8770000  77.3880000
  38.1960000  65.2070000  56.5980000  37.2750000  64.9650000  56.6990000
  38.1730000  66.0990000  56.2500000  32.8920000  78.7860000  94.4860000
  32.1870000  78.3690000  93.9930000  33.2180000  78.0990000  95.0680000
  42.5680000  88.9560000  62.4360000  42.0190000  88.9900000  61.6530000
  43.4640000  89.0000000  62.1030000  38.0890000  41.5080000  85.7010000
  37.5040000  42.2040000  85.4020000  38.5290000  41.8780000  86.4670000
  74.5900000  59.8170000  93.9270000  74.3260000  60.3680000  93.1900000
  75.5450000  59.8850000  93.9470000  83.4460000  70.3680000  61.1390000
  82.7360000  70.0460000  61.6940000  83.9700000  70.9230000  61.7170000
  62.1550000  46.9750000  73.0580000  61.2970000  47.3980000  73.0300000
  62.7800000  47.7000000  73.0720000  69.0870000  59.8110000  96.5000000
  68.4320000  60.5070000  96.4710000  69.9270000  60.2700000  96.4550000
  57.8210000  31.4330000  59.2800000  57.9480000  32.3130000  59.6330000
  57.2500000  31.0000000  59.9150000  58.4050000  73.3170000  81.6930000
  57.9420000  74.1260000  81.4790000  59.2910000  73.6000000  81.9210000
  38.3520000  54.9310000  93.6670000  38.3350000  55.6070000  92.9900000
  37.6240000  55.1550000  94.2480000  50.5320000  87.5540000  96.5000000
  51.4360000  87.8670000  96.5000000  50.6070000  86.6000000  96.4990000
  86.4070000  63.6120000  95.4640000  86.6230000  63.3900000  96.3690000
  86.6700000  62.8430000  94.9580000  71.1730000  65.2620000  67.8520000
  71.0000000  65.5320000  68.7530000  70.7030000  65.9010000  67.3150000
  57.5640000  71.3630000  74.2990000  57.6860000  70.4250000  74.1580000
  58.4500000  71.7060000  74.4160000  58.1670000  83.7590000  75.9800000
  59.0800000  83.4750000  76.0010000  57.6920000  83.0130000  75.6110000
  80.0860000  38.2930000  59.6900000  80.9370000  38.5480000  60.0480000
  80.1220000  38.5610000  58.7720000  46.5700000  86.5030000  94.1380000
  46.7220000  86.4080000  93.1980000  45.6740000  86.1930000  94.2690000
  66.4000000  46.5720000  92.2080000  66.4270000  46.2940000  93.1240000
  66.6950000  45.8050000  91.7160000  57.6970000  58.5250000  94.8720000
  57.3560000  57.8090000  95.4080000  58.6130000  58.6070000  95.1370000
  73.1070000  37.6770000  86.9740000  73.5790000  36.8450000  86.9730000
  72.2140000  37.4460000  87.2300000  60.9040000  65.7270000  75.0690000
  60.8830000  64.7970000  74.8430000  61.6560000  66.0730000  74.5870000
  82.4020000  72.7790000  56.7660000  82.8990000  73.0670000  56.0010000
  81.9500000  71.9870000  56.4750000  43.5740000  51.2650000  91.9790000
  43.9800000  51.7080000  92.7240000  43.0480000  51.9440000  91.5550000
  50.2580000  61.0460000  56.0500000  50.7880000  60.2510000  56.0000000
  50.8950000  61.7610000  56.0360000  77.9690000  67.0860000  72.3930000
  77.5870000  67.7970000  72.9060000  78.0130000  67.4300000  71.5000000
  68.8920000  51.6780000  81.7920000  68.9660000  52.6220000  81.6560000
  69.7130000  51.3220000  81.4500000  64.4910000  36.6730000  73.6500000
  63.5650000  36.4560000  73.7530000  64.9460000  35.8360000  73.7490000
  84.6390000  63.1210000  85.0670000  85.1320000  62.4870000  84.5470000
  84.3460000  62.6270000  85.8330000  39.6460000  44.6360000  86.3630000
  39.2160000  45.4280000  86.6840000  39.0030000  44.2340000  85.7780000
  51.3810000  50.9060000  84.8190000  51.6240000  51.8190000  84.6670000
  51.0900000  50.5900000  83.9630000  70.0770000  71.4710000  71.6590000
  69.8270000  70.6970000  72.1620000  69.8960000  72.2070000  72.2450000
  53.7270000  50.0610000  67.8910000  53.6320000  49.2620000  67.3730000
  52.9070000  50.1290000  68.3810000  46.6160000  56.9470000  65.6390000
  47.2220000  56.5120000  66.2380000  46.5010000  57.8230000  66.0080000
  51.8620000  46.3280000  71.3720000  52.1730000  45.4260000  71.4490000
  52.2550000  46.7820000  72.1180000  76.7390000  32.2830000  96.4190000
  77.1660000  32.4440000  95.5770000  76.0970000  32.9890000  96.5000000
  44.8470000  58.6160000  58.9690000  44.2410000  59.0060000  58.3390000
  45.3860000  58.0210000  58.4470000  48.9960000  56.0840000  73.2870000
  48.7700000  56.8140000  72.7110000  49.8060000  56.3590000  73.7180000
  47.6990000  55.5700000  91.6450000  47.1170000  55.0400000  92.1880000
  47.5210000  56.4730000  91.9110000  33.7330000  57.0560000  66.3660000
  33.0180000  57.5660000  65.9860000  33.8990000  57.4710000  67.2140000
  34.6430000  80.7710000  86.8090000  35.2030000  81.2350000  87.4310000
  34.2650000  81.4620000  86.2640000  45.1040000  86.4760000  68.6900000
  44.7070000  85.6070000  68.7470000  45.6310000  86.5520000  69.4860000
  71.8580000  37.0690000  60.5700000  72.5450000  37.6740000  60.2900000
  71.4590000  37.4940000  61.3300000  35.6700000  42.0160000  79.5380000
  36.0070000  42.5050000  78.7880000  36.3250000  41.3350000  79.6950000
  65.9490000  31.9520000  70.8270000  66.0040000  31.0000000  70.7480000
  66.8570000  32.2380000  70.9290000  70.5840000  88.3910000  79.7920000
  69.8460000  89.0000000  79.7630000  71.3540000  88.9510000  79.8870000
  77.4180000  83.9170000  89.9980000  77.9850000  84.2570000  89.3060000
  77.7910000  84.2660000  90.8080000  83.8900000  87.7470000  82.1850000
  83.1180000  87.2580000  81.9030000  83.7880000  88.6100000  81.7820000
  88.6460000  88.9810000  96.3590000  88.1190000  88.1950000  96.4990000
  88.8060000  88.9990000  95.4150000  70.1360000  80.7310000  56.0020000
  70.9720000  80.2650000  56.0000000  70.3780000  81.6570000  56.0040000
  60.0370000  83.0760000  91.5570000  59.4650000  83.8350000  91.4430000
  59.4430000  82.3250000  91.5580000  63.2790000  44.3520000  56.4760000
  63.9000000  43.8010000  56.0000000  63.3210000  45.1990000  56.0320000
  72.2210000  34.0920000  83.1660000  72.4500000  33.2800000  82.7150000
  72.2870000  34.7690000  82.4910000  76.1600000  77.1710000  84.0000000
  76.9500000  77.6660000  83.7830000  76.4710000  76.2770000  84.1480000
  77.2270000  63.9350000  93.9790000  77.4280000  64.4140000  93.1750000
  77.6160000  64.4630000  94.6770000  86.7120000  31.6200000  82.0240000
  85.8070000  31.3220000  81.9310000  86.6760000  32.2870000  82.7090000
  36.5110000  67.2070000  58.3910000  35.7240000  67.7060000  58.6090000
  37.0690000  67.2900000  59.1640000  49.5910000  75.9760000  75.3910000
  48.6360000  75.9220000  75.3630000  49.8770000  75.0790000  75.5630000
  33.0060000  64.3160000  59.5360000  33.5860000  65.0140000  59.8390000
  32.2200000  64.7710000  59.2320000  82.7790000  40.9680000  93.2480000
  82.3850000  41.7590000  93.6130000  83.2630000  41.2730000  92.4800000
  79.3970000  39.0840000  56.0250000  78.4500000  39.2150000  56.0000000
  79.5070000  38.1330000  56.0470000  86.7850000  39.0730000  77.3300000
  86.4220000  38.7000000  76.5260000  86.5340000  38.4540000  78.0160000
  56.8190000  60.3990000  61.6270000  57.5190000  61.0280000  61.8030000
  56.0900000  60.9340000  61.3100000  61.6010000  76.8640000  91.6760000
  61.8010000  77.7990000  91.7120000  62.4190000  76.4540000  91.3950000
  61.8740000  80.7740000  76.7910000  61.5510000  80.6620000  77.6850000
  61.0950000  80.9920000  76.2790000  54.1580000  52.3100000  69.1070000
  53.4960000  52.4280000  69.7880000  54.0470000  53.0670000  68.5310000
  36.1120000  86.3750000  95.5980000  36.6950000  85.6170000  95.5610000
  36.5970000  87.0730000  95.1570000  76.0470000  31.0000000  74.2360000
  75.9620000  31.0610000  73.2850000  76.6700000  31.6900000  74.4670000
  76.3860000  41.9650000  86.8600000  76.8010000  42.8180000  86.7320000
  75.8290000  41.8530000  86.0890000  48.6350000  68.9730000  60.9170000
  48.9940000  68.0980000  61.0630000  49.3620000  69.5660000  61.1130000
  58.6820000  36.0770000  66.2460000  57.9250000  35.5970000  65.9110000
  58.3540000  36.9610000  66.4070000  57.5930000  86.4740000  70.3380000
  57.1450000  85.6290000  70.3080000  58.5240000  86.2510000  70.3420000
  73.4220000  74.5710000  80.1620000  72.9910000  73.7380000  80.3530000
  74.2980000  74.3250000  79.8650000  43.9390000  67.4250000  58.9060000
  43.0840000  67.3430000  58.4840000  44.3310000  66.5560000  58.8240000
  63.9860000  35.5900000  57.9940000  63.0330000  35.6000000  58.0800000
  64.2300000  36.5130000  57.9130000  45.8680000  33.8590000  92.3690000
  46.4290000  34.4910000  92.8180000  45.3170000  33.4930000  93.0610000
  52.3950000  44.6220000  63.4650000  52.1130000  43.7110000  63.5550000
  51.6360000  45.0720000  63.0930000  39.0730000  39.1220000  89.9860000
  39.9850000  39.3340000  89.7890000  38.5910000  39.9250000  89.7830000
  31.9110000  83.4470000  72.5400000  32.1220000  82.5420000  72.3150000
  31.0000000  83.4160000  72.8340000  88.4370000  55.5160000  91.8950000
  89.0000000  54.8200000  91.5580000  89.0000000  56.2900000  91.9190000
  49.7200000  31.0010000  85.1670000  49.5600000  31.9260000  85.3510000
  50.4840000  31.0000000  84.5890000  88.4300000  68.4410000  75.8300000
  89.0000000  69.1030000  75.4390000  89.0000000  67.9570000  76.4280000
  35.3500000  69.5290000  66.6690000  36.2090000  69.9280000  66.5320000
  34.9310000  70.0830000  67.3280000  80.9390000  62.3330000  95.4520000
  80.8130000  61.5690000  94.8900000  81.7630000  62.7180000  95.1530000
  54.8660000  64.7070000  56.0080000  54.0020000  64.2940000  56.0000000
  54.6830000  65.6470000  56.0140000  56.8560000  70.4050000  77.5390000
  56.5160000  69.5100000  77.5650000  57.7920000  70.3010000  77.3660000
  33.5180000  87.7550000  59.4550000  33.9050000  87.5590000  58.6010000
  33.5830000  88.7070000  59.5350000  38.8680000  63.6350000  76.0780000
  38.3550000  63.9350000  75.3270000  38.3240000  63.8420000  76.8380000
  71.5360000  31.5480000  59.1960000  71.0290000  32.3540000  59.2890000
  72.3850000  31.8360000  58.8590000  80.5000000  41.4380000  73.4020000
  79.6650000  41.9050000  73.3980000  81.1620000  42.1290000  73.4100000
  68.5110000  77.0180000  73.7310000  68.3400000  76.3290000  74.3740000
  67.7690000  77.6160000  73.8180000  64.7610000  40.2430000  91.8460000
  65.3720000  39.5230000  91.6920000  63.9000000  39.8240000  91.8800000
  86.6500000  31.0000000  70.6680000  86.9890000  31.3030000  71.5100000
  85.7920000  31.4170000  70.5900000  73.0890000  31.0000000  71.0270000
  72.9920000  31.9080000  70.7400000  73.5440000  31.0610000  71.8670000
  77.9490000  66.4040000  90.6710000  77.0970000  66.0110000  90.8580000
  78.5380000  66.0210000  91.3220000  44.0400000  85.5070000  66.0070000
  43.6070000  84.6880000  66.2480000  43.6890000  85.7190000  65.1420000
  45.4510000  44.1280000  87.4320000  44.8970000  44.9060000  87.4770000
  45.5440000  43.8460000  88.3420000  88.4180000  88.9680000  91.9420000
  88.9900000  88.7160000  91.2170000  88.9960000  88.9960000  92.7050000
  65.1770000  88.4460000  65.5380000  64.5030000  87.8040000  65.3180000
  65.9810000  87.9320000  65.6190000  63.8030000  65.6200000  65.5610000
  64.4330000  65.3090000  64.9110000  63.6990000  64.8840000  66.1650000
  63.8250000  86.7510000  80.2480000  63.4480000  85.9630000  80.6380000
  64.2410000  86.4440000  79.4420000  53.2390000  61.8050000  60.1330000
  52.4500000  61.7730000  60.6740000  53.4950000  60.8890000  60.0260000
  64.5920000  41.5490000  88.9540000  64.2510000  40.8160000  89.4670000
  65.4520000  41.2530000  88.6560000  85.5740000  58.1910000  94.8200000
  85.3930000  59.1080000  94.6110000  86.4930000  58.0680000  94.5800000
  36.2570000  78.4010000  81.6780000  36.0020000  78.6210000  80.7820000
  35.7430000  78.9940000  82.2270000  46.4140000  42.6240000  75.2250000
  47.0080000  42.9630000  74.5560000  46.9830000  42.4130000  75.9660000
  42.9210000  39.0980000  59.9550000  43.2800000  39.1640000  59.0710000
  43.6740000  39.2380000  60.5310000  58.3150000  45.6570000  73.4940000
  57.7960000  45.0890000  74.0620000  59.2240000  45.4440000  73.7060000
  48.5390000  82.5820000  66.8560000  48.1950000  83.4110000  66.5250000
  47.7810000  82.1480000  67.2490000  31.0000000  47.2250000  76.7570000
  31.0380000  46.6250000  77.5020000  31.5850000  47.9440000  76.9980000
  37.1320000  41.1820000  59.1350000  36.8520000  41.5400000  59.9770000
  36.6330000  40.3700000  59.0410000  38.6950000  86.5860000  83.0720000
  38.1810000  87.1260000  82.4720000  39.4210000  87.1490000  83.3400000
  41.6130000  37.2130000  84.9880000  42.5650000  37.1450000  84.9280000
  41.3060000  36.3060000  84.9780000  83.2540000  68.2240000  80.0070000
  83.8580000  67.4910000  80.1250000  83.3630000  68.7540000  80.7970000
  75.3180000  40.0470000  56.0080000  75.2440000  39.0920000  56.0010000
  75.8750000  40.2390000  56.7620000  74.8590000  84.0300000  58.5050000
  75.1190000  84.9380000  58.3460000  74.9870000  83.9040000  59.4450000
  57.4310000  78.8490000  56.0230000  58.3830000  78.7480000  56.0120000
  57.0940000  77.9530000  56.0000000  38.3210000  35.8240000  93.3500000
  38.5840000  36.3410000  92.5890000  38.2740000  36.4570000  94.0670000
  59.3180000  35.1120000  96.4970000  59.0610000  35.0190000  95.5800000
  60.2310000  35.4000000  96.4630000  74.9110000  73.4490000  82.3450000
  74.0990000  73.8930000  82.5890000  74.6230000  72.6500000  81.9020000
  68.4040000  33.8050000  96.5000000  69.0390000  33.0900000  96.5000000
  68.9370000  34.6010000  96.5000000  63.0760000  77.6570000  80.2290000
  62.4410000  78.3280000  79.9780000  62.9230000  76.9400000  79.6120000
  72.2310000  63.6460000  80.5490000  72.8790000  63.0100000  80.2460000
  72.7510000  64.3590000  80.9220000  88.7210000  75.7550000  65.2910000
  88.9990000  74.8550000  65.4650000  88.9990000  75.9210000  64.3890000
  33.1270000  82.3490000  75.4400000  33.4230000  82.9420000  74.7500000
  33.2980000  81.4730000  75.0930000  50.2670000  44.1480000  70.3830000
  49.9410000  43.9470000  69.5060000  49.8540000  44.9830000  70.6070000
  63.2790000  31.0460000  75.5310000  63.6670000  31.2860000  76.3720000
  64.0210000  31.0000000  74.9280000  39.1280000  73.5610000  63.5590000
  38.2440000  73.8140000  63.2940000  39.2000000  73.8560000  64.4670000
  46.8070000  46.4320000  88.5370000  46.4050000  47.2500000  88.2470000
  47.7290000  46.5180000  88.2930000  78.4720000  49.4250000  82.5000000
  78.9990000  50.1240000  82.1130000  79.1070000  48.8630000  82.9440000
  61.7990000  70.2320000  91.3690000  61.5820000  71.0820000  91.7510000
  62.7530000  70.2420000  91.2860000  86.9180000  74.0040000  86.7580000
  86.4700000  74.7110000  87.2220000  87.2440000  74.4120000  85.9560000
  50.9660000  74.4570000  82.2730000  50.4530000  73.6520000  82.2050000
  50.4580000  75.1070000  81.7860000  71.8380000  65.1890000  64.3890000
  72.6980000  65.5980000  64.4850000  72.0060000  64.3950000  63.8810000
  66.3160000  58.9300000  68.8360000  66.5010000  59.8440000  69.0500000
  66.5180000  58.8570000  67.9020000  67.3920000  47.4160000  89.1900000
  67.6350000  47.4940000  88.2680000  67.7430000  46.5670000  89.4600000
  43.8980000  54.3460000  57.4690000  44.6400000  54.3190000  58.0730000
  43.1640000  53.9970000  57.9750000  39.9650000  68.9890000  80.1230000
  39.2570000  69.3920000  80.6260000  39.6540000  68.1020000  79.9400000
  87.2600000  36.5270000  79.6900000  87.4190000  35.5860000  79.6140000
  88.1290000  36.9070000  79.8270000  85.0690000  37.8330000  93.4290000
  84.6090000  37.6740000  94.2530000  85.9180000  38.1890000  93.6940000
  63.6100000  65.6450000  76.5930000  63.7490000  65.1820000  75.7670000
  62.6890000  65.4870000  76.8030000  56.6040000  67.5110000  73.1860000
  56.9210000  66.6080000  73.1900000  57.3960000  68.0440000  73.2570000
  64.7950000  36.1790000  77.3160000  64.4070000  35.4240000  77.7580000
  64.6260000  36.0250000  76.3860000  45.2430000  64.5240000  86.1140000
  45.8370000  64.3620000  86.8460000  44.5490000  63.8730000  86.2190000
  54.8990000  80.5930000  59.8590000  55.0470000  79.6750000  59.6310000
  55.2000000  81.0820000  59.0930000  57.0330000  45.1940000  87.1500000
  57.0970000  45.8120000  86.4220000  56.4490000  45.6210000  87.7760000
  58.5100000  83.6670000  58.3550000  57.7020000  83.1930000  58.1590000
  59.1810000  82.9860000  58.4060000  89.0000000  53.5840000  76.5400000
  88.9710000  53.5890000  77.4960000  88.8950000  52.6620000  76.3010000
  53.6830000  61.1150000  62.9150000  54.3420000  61.7570000  63.1780000
  54.1750000  60.3030000  62.7880000  85.8040000  76.7840000  64.5680000
  86.6860000  77.1050000  64.7580000  85.8610000  76.4390000  63.6760000
  35.8040000  75.9330000  87.3030000  36.0480000  75.9620000  88.2280000
  36.5040000  75.4310000  86.8850000  43.2030000  76.9210000  65.9760000
  43.0810000  77.7750000  66.3910000  44.1030000  76.9380000  65.6520000
  61.1940000  54.7480000  67.6200000  60.2830000  54.8500000  67.3430000
  61.4000000  55.5660000  68.0720000  52.6510000  38.5050000  61.8260000
  51.9110000  39.1000000  61.9430000  53.0770000  38.4800000  62.6830000
  54.1370000  63.0260000  88.4920000  53.3080000  62.5550000  88.5790000
  53.8810000  63.9390000  88.3550000  56.2380000  31.4380000  63.1010000
  56.1920000  31.2290000  62.1690000  55.3750000  31.2000000  63.4430000
  33.9280000  31.0360000  71.7930000  34.8020000  31.0230000  71.4040000
  33.3320000  31.0000000  71.0440000  71.7940000  80.8380000  71.2230000
  71.6310000  80.6990000  72.1560000  72.7330000  80.6830000  71.1180000
  83.4470000  31.5480000  75.4800000  83.8010000  31.0630000  74.7350000
  83.6460000  31.0000000  76.2390000  78.5980000  60.2370000  58.7220000
  79.5320000  60.0500000  58.6250000  78.5630000  60.9870000  59.3160000
  37.2140000  49.7660000  77.9770000  38.0710000  49.4480000  78.2610000
  37.3290000  50.7120000  77.8830000  82.8070000  37.3840000  58.5660000
  83.6190000  36.9370000  58.3300000  82.1910000  36.6770000  58.7610000
  68.3740000  33.2990000  74.7370000  68.3650000  34.1850000  74.3760000
  69.2940000  33.1350000  74.9490000  71.2980000  45.9430000  94.3570000
  72.2180000  45.8460000  94.6050000  71.2630000  46.7800000  93.8920000
  84.1440000  81.0390000  96.5000000  83.7840000  81.9250000  96.4510000
  83.3770000  80.4670000  96.4810000  79.2260000  57.5730000  60.7550000
  79.5880000  56.7580000  60.4070000  78.8290000  58.0020000  59.9960000
  46.8730000  59.3320000  93.1380000  47.2140000  58.9180000  92.3450000
  45.9280000  59.1820000  93.0990000  56.9150000  59.0760000  68.3760000
  56.6580000  58.9450000  67.4640000  57.7230000  58.5710000  68.4730000
  68.5160000  61.5200000  56.0000000  69.1460000  62.2400000  56.0080000
  68.3940000  61.2970000  56.9230000  84.9720000  71.8360000  89.1560000
  85.5140000  71.2080000  89.6340000  85.1200000  71.6280000  88.2340000
  53.8970000  47.9770000  84.3110000  54.6990000  48.4470000  84.0860000
  53.2880000  48.6610000  84.5910000  39.2390000  34.6350000  88.1670000
  39.2180000  33.7280000  87.8630000  39.6550000  35.1180000  87.4520000
  36.3150000  61.9960000  68.2600000  36.3890000  62.9500000  68.2420000
  36.3570000  61.7690000  69.1890000  39.1050000  32.7450000  82.7070000
  39.2510000  33.6890000  82.7550000  38.1520000  32.6480000  82.7330000
  31.0080000  78.5180000  88.5170000  31.9220000  78.7090000  88.3090000
  31.0000000  77.5850000  88.7300000  80.0370000  42.8220000  85.6640000
  80.7620000  42.9420000  86.2760000  80.4590000  42.7070000  84.8120000
  61.4700000  69.5260000  59.2050000  61.9110000  69.6340000  58.3630000
  60.7390000  70.1440000  59.1750000  74.3580000  82.4370000  62.0060000
  73.8630000  82.5110000  61.1900000  73.6970000  82.5130000  62.6950000
  66.4200000  82.9100000  83.0910000  66.2970000  82.0590000  82.6700000
  66.3540000  82.7250000  84.0280000  62.8700000  47.2750000  78.3440000
  63.5390000  47.7860000  77.8880000  62.9810000  46.3830000  78.0130000
  79.8610000  53.3350000  73.8810000  80.6710000  53.8440000  73.8690000
  80.1140000  52.4720000  73.5520000  65.7950000  72.7480000  78.0230000
  66.5270000  72.3960000  77.5170000  66.0010000  73.6770000  78.1290000
  60.3350000  81.9860000  56.0040000  59.8360000  82.8030000  56.0000000
  59.6680000  81.2980000  56.0120000  39.9780000  50.2240000  91.2490000
  39.4520000  49.9320000  91.9930000  39.5670000  49.8120000  90.4890000
  34.5970000  45.6680000  65.5150000  34.4910000  45.4390000  66.4380000
  35.4470000  45.3010000  65.2720000  66.5970000  51.0500000  68.2000000
  65.8030000  51.5760000  68.2930000  67.0640000  51.4480000  67.4650000
  46.8090000  85.0830000  65.2860000  46.7560000  86.0200000  65.4730000
  47.0620000  85.0370000  64.3640000  66.8570000  39.0780000  87.4630000
  66.6170000  39.8470000  86.9470000  67.6500000  38.7440000  87.0410000
  85.2320000  41.4080000  87.9250000  86.1860000  41.3400000  87.9130000
  85.0080000  41.8010000  87.0810000  82.6920000  36.6170000  72.7340000
  82.4060000  36.8860000  73.6060000  83.1720000  37.3730000  72.3940000
  86.4410000  65.8450000  61.2390000  86.6410000  66.7610000  61.4280000
  85.4850000  65.8120000  61.1930000  34.0600000  33.9530000  79.1070000
  34.9520000  34.1080000  79.4170000  33.6830000  33.3530000  79.7510000
  33.4340000  55.7240000  63.4420000  33.8980000  56.5310000  63.6670000
  32.5070000  55.9600000  63.4890000  52.9180000  31.3330000  63.0050000
  53.0960000  32.2200000  63.3180000  52.2450000  31.0000000  63.5990000
  63.4050000  56.7670000  94.3740000  64.2080000  56.2750000  94.2020000
  63.1000000  57.0380000  93.5080000  76.5530000  59.5290000  83.5430000
  77.3880000  59.7830000  83.1520000  76.1580000  60.3550000  83.8240000
  45.8650000  69.4580000  68.1440000  45.7140000  70.0820000  67.4350000
  46.6260000  68.9510000  67.8590000  71.3450000  88.9840000  82.6290000
  70.3990000  89.0000000  82.4840000  71.4410000  88.9650000  83.5820000
  51.2200000  69.4510000  90.0680000  51.3900000  69.9990000  90.8340000
  50.2800000  69.5390000  89.9130000  47.8400000  54.1250000  79.5490000
  48.7450000  54.2850000  79.8170000  47.7710000  53.1720000  79.4940000
  82.9030000  75.4250000  80.0060000  83.1660000  74.6170000  80.4460000
  83.7060000  75.7500000  79.5990000  49.1880000  64.4060000  96.3730000
  49.9490000  63.8290000  96.4370000  48.4370000  63.8260000  96.5000000
  79.6040000  47.1950000  61.9240000  79.0920000  46.5210000  61.4790000
  78.9740000  47.8920000  62.1080000  84.8860000  50.6430000  94.1960000
  84.5690000  49.7920000  93.8940000  84.2720000  50.8970000  94.8860000
  41.0660000  80.0620000  59.2640000  41.2780000  80.8740000  58.8040000
  40.1250000  80.1220000  59.4340000  63.9150000  83.7380000  90.0590000
  64.2730000  84.1960000  89.2980000  62.9750000  83.9140000  90.0250000
  71.1190000  73.2780000  88.0090000  71.0890000  72.3220000  88.0280000
  71.9740000  73.4990000  88.3800000  45.5200000  69.6380000  59.6280000
  45.1940000  70.0440000  60.4310000  46.1830000  70.2480000  59.3040000
  68.5210000  78.3280000  63.4420000  69.2250000  78.9070000  63.7340000
  67.7420000  78.8850000  63.4290000  61.7990000  66.9890000  70.1750000
  60.8990000  67.2980000  70.0740000  62.3010000  67.7770000  70.3860000
  31.0000000  42.5880000  83.3710000  31.8890000  42.7450000  83.6880000
  31.1200000  42.2160000  82.4960000  83.5510000  42.6660000  72.9070000
  83.4290000  42.0730000  72.1660000  84.0670000  43.3910000  72.5520000
  65.3780000  46.8180000  86.1590000  64.8280000  47.6010000  86.1810000
  66.2740000  47.1540000  86.1840000  87.4850000  39.5730000  71.0090000
  88.4140000  39.3780000  71.1330000  87.0770000  38.7180000  70.8680000
  59.1730000  47.6220000  78.7290000  59.5220000  48.5120000  78.7070000
  58.2360000  47.7270000  78.5620000  63.0680000  64.5710000  69.8370000
  63.7510000  64.9800000  70.3680000  63.3860000  63.6820000  69.6790000
  62.7470000  49.4950000  63.5180000  62.3790000  48.6150000  63.5940000
  63.6380000  49.3560000  63.1940000  36.9310000  59.6880000  77.6270000
  36.8910000  60.5270000  77.1680000  36.3620000  59.8040000  78.3880000
  83.9690000  46.1540000  83.0990000  84.4560000  46.3730000  83.8930000
  83.8260000  46.9950000  82.6650000  85.8320000  49.6120000  78.9270000
  86.5060000  49.1070000  79.3810000  86.2020000  50.4920000  78.8510000
  41.6590000  63.2430000  86.0140000  42.3800000  62.6140000  85.9980000
  42.0560000  64.0560000  86.3290000  31.8310000  47.1650000  56.5460000
  32.3580000  47.7490000  56.0000000  31.0000000  47.0840000  56.0780000
  48.5420000  51.9770000  82.0710000  48.2350000  52.8170000  82.4110000
  49.4710000  52.1160000  81.8900000  50.9450000  36.5880000  56.0240000
  50.3680000  37.3510000  56.0000000  50.9550000  36.3240000  56.9440000
  40.4480000  68.6790000  62.6250000  40.8750000  69.5200000  62.7870000
  41.1550000  68.0360000  62.6820000  47.4160000  31.7500000  83.9660000
  46.8270000  31.0100000  84.1090000  46.8950000  32.3780000  83.4650000
  76.4080000  54.2650000  85.4620000  75.4700000  54.0770000  85.4750000
  76.8250000  53.4030000  85.4330000  41.3340000  74.9650000  90.3470000
  40.3850000  75.0850000  90.3160000  41.5260000  74.3800000  89.6140000
  43.3330000  44.1070000  85.0860000  43.8470000  44.3490000  84.3160000
  43.7010000  43.2680000  85.3670000  70.8210000  85.1930000  89.0260000
  71.7330000  85.4260000  88.8540000  70.8730000  84.4050000  89.5670000
  35.9960000  54.2380000  95.9180000  35.6290000  53.5710000  96.4980000
  36.2210000  54.9640000  96.5000000  83.3720000  64.0990000  60.5780000
  83.8200000  63.3660000  60.1560000  82.5260000  64.1510000  60.1320000
  35.3280000  84.9980000  92.1850000  35.4300000  85.9370000  92.3390000
  34.4240000  84.8100000  92.4380000  61.1840000  58.1530000  96.4530000
  61.0670000  58.3190000  95.5180000  61.9370000  57.5630000  96.5000000
  57.2680000  63.9910000  80.6280000  58.0950000  64.4700000  80.6770000
  57.4470000  63.1600000  81.0690000  77.6750000  31.1070000  93.5270000
  78.5200000  31.0830000  93.9750000  77.8920000  31.0000000  92.6000000
  47.3720000  80.8290000  87.7910000  46.4910000  80.5070000  87.9810000
  47.2450000  81.7460000  87.5480000  63.7650000  66.5340000  60.1750000
  63.5770000  66.2880000  59.2690000  63.4150000  67.4210000  60.2600000
  33.3850000  80.8180000  81.8140000  33.5430000  81.7550000  81.7070000
  33.2830000  80.6970000  82.7580000  38.7990000  79.7560000  62.4470000
  39.6650000  79.6920000  62.0460000  38.5330000  80.6640000  62.3000000
  54.9580000  34.0330000  86.5980000  55.5370000  34.7690000  86.7930000
  54.1230000  34.4390000  86.3640000  63.9590000  37.0170000  65.1510000
  63.1130000  37.3770000  65.4160000  64.5830000  37.7250000  65.3130000
  53.2900000  74.7750000  73.7940000  52.5870000  75.4210000  73.7320000
  54.0920000  75.2790000  73.6490000  42.7280000  69.6030000  67.4430000
  43.2400000  70.3890000  67.6340000  41.8770000  69.7670000  67.8510000
  41.6450000  56.2610000  56.5660000  41.0490000  56.9790000  56.3510000
  42.0220000  56.5060000  57.4110000  70.0020000  55.0570000  72.0180000
  70.4610000  55.0620000  72.8580000  70.6260000  55.4390000  71.4010000
  66.5070000  88.5550000  96.5000000  66.4780000  87.6790000  96.1170000
  67.2910000  88.9560000  96.1230000  53.1190000  85.2080000  95.8150000
  53.0150000  85.9300000  96.4350000  53.2780000  84.4400000  96.3650000
  71.1600000  45.7400000  64.1490000  70.7210000  46.2900000  64.7980000
  70.6780000  45.8980000  63.3370000  84.9000000  77.9060000  93.3910000
  84.0030000  78.2330000  93.3260000  84.8020000  76.9640000  93.5350000
  46.6900000  41.0990000  56.7980000  46.1750000  40.6040000  57.4360000
  46.6530000  40.5710000  56.0000000  51.9700000  45.2620000  82.9910000
  51.4250000  44.7140000  82.4260000  51.4860000  45.3120000  83.8150000
  31.0940000  88.7140000  85.3430000  31.0000000  87.9690000  84.7500000
  32.0010000  89.0000000  85.2270000  79.7500000  73.4070000  82.6230000
  80.2090000  73.8220000  83.3530000  79.7810000  74.0560000  81.9200000
  68.6780000  67.9660000  65.2830000  69.2340000  68.7460000  65.2890000
  69.0550000  67.3980000  65.9550000  59.8550000  87.9800000  85.3770000
  59.6070000  87.5330000  84.5690000  59.9700000  88.8950000  85.1200000
  66.7340000  84.2700000  86.2760000  66.7410000  84.7480000  85.4470000
  67.3700000  83.5650000  86.1530000  47.7570000  34.4740000  65.1660000
  48.1660000  35.1650000  64.6460000  47.4500000  33.8370000  64.5200000
  49.7570000  58.3890000  87.0580000  49.6920000  58.9970000  86.3220000
  50.0910000  57.5790000  86.6710000  83.8640000  64.6320000  96.5000000
  83.9010000  63.6760000  96.5000000  82.9280000  64.8360000  96.5000000
  56.4460000  31.3450000  75.1550000  56.9880000  31.0000000  74.4460000
  56.8670000  31.0280000  75.9550000  87.8100000  83.4230000  62.2130000
  88.2670000  82.6980000  61.7860000  87.0040000  83.0330000  62.5510000
  55.5840000  57.8580000  58.5000000  55.3940000  58.7840000  58.6440000
  56.5300000  57.8260000  58.3570000  69.5410000  86.7010000  59.3000000
  69.6560000  86.9560000  58.3850000  69.2250000  87.4950000  59.7330000
  75.2480000  86.1970000  86.5570000  76.1760000  86.4220000  86.5050000
  74.9180000  86.3350000  85.6680000  63.6510000  71.6510000  76.6270000
  63.2700000  72.4720000  76.9380000  63.0170000  71.3180000  75.9920000
  49.5940000  46.4650000  56.9630000  49.2350000  46.7870000  56.1370000
  48.9800000  46.7750000  57.6290000  79.2790000  75.5970000  90.9110000
  79.9560000  74.9430000  91.0850000  79.7640000  76.4020000  90.7290000
  62.4110000  47.0250000  67.9420000  62.2540000  47.9680000  67.9900000
  61.7070000  46.6380000  68.4640000  88.3340000  57.7490000  73.0430000
  88.9950000  58.4280000  73.1820000  88.8360000  56.9750000  72.7860000
  40.8210000  75.5200000  85.8390000  41.3090000  76.2920000  85.5540000
  41.4820000  74.8290000  85.9030000  36.0830000  70.8220000  88.2950000
  35.1270000  70.8330000  88.3430000  36.3020000  69.9120000  88.0920000
  60.1690000  72.8030000  72.7050000  61.0930000  72.5880000  72.8300000
  59.8460000  72.1310000  72.1040000  38.7830000  63.5710000  69.5560000
  39.6600000  63.8810000  69.7820000  38.8140000  63.4330000  68.6090000
  77.7780000  61.7830000  76.6050000  77.5500000  62.6730000  76.8700000
  78.3100000  61.4460000  77.3260000  31.5800000  36.0510000  86.3400000
  31.0000000  35.3260000  86.1080000  31.0000000  36.7110000  86.7210000
  35.7970000  44.7460000  76.6870000  35.6550000  44.7830000  77.6330000
  35.9210000  43.8160000  76.5000000  52.2820000  40.6780000  64.0800000
  52.6780000  40.0430000  64.6760000  52.0500000  41.4200000  64.6390000
  31.8010000  69.2780000  79.4090000  32.3300000  68.4950000  79.5590000
  31.0000000  68.9510000  78.9990000  76.9380000  45.2040000  58.4780000
  77.3900000  45.4060000  57.6590000  77.5850000  45.3870000  59.1610000
  47.6680000  60.8310000  58.6520000  48.5440000  60.6480000  58.3110000
  47.2100000  59.9930000  58.5990000  32.2810000  42.1020000  89.1760000
  31.3630000  41.9980000  89.4250000  32.3170000  41.8120000  88.2640000
  59.7870000  34.7250000  57.5220000  59.1670000  35.1070000  58.1430000
  60.5850000  34.5860000  58.0330000  57.7540000  33.7670000  93.3010000
  56.9870000  33.2130000  93.4500000  58.4490000  33.3570000  93.8160000
  52.8320000  68.9710000  88.2180000  53.0940000  69.8800000  88.3610000
  53.4360000  68.6490000  87.5480000  50.5940000  76.9040000  68.1460000
  51.3220000  76.6110000  67.5990000  50.7520000  76.4950000  68.9970000
  64.2750000  75.6880000  77.5990000  63.3970000  75.3070000  77.6310000
  64.1680000  76.4940000  77.0940000  41.5260000  81.5290000  62.3030000
  40.6730000  81.9520000  62.4010000  41.7220000  81.5980000  61.3680000
  74.7430000  60.7190000  62.8150000  74.4460000  59.8580000  62.5220000
  75.6770000  60.7370000  62.6010000  36.5020000  72.3750000  66.1160000
  35.9350000  73.1440000  66.1660000  37.3710000  72.7020000  66.3530000
  49.5840000  39.7510000  72.1360000  49.4820000  39.2190000  72.9250000
  49.4300000  39.1400000  71.4140000  59.4060000  52.2050000  60.1850000
  59.0350000  51.3240000  60.2210000  60.3480000  52.0660000  60.0800000
  35.1650000  78.5790000  88.9860000  34.4850000  79.2320000  88.8250000
  34.9940000  78.2700000  89.8770000  63.1830000  82.3650000  71.7820000
  62.3220000  82.4490000  71.3730000  63.7790000  82.1860000  71.0530000
  83.1570000  31.4130000  93.2200000  82.2940000  31.0000000  93.2440000
  82.9990000  32.3160000  93.4970000  31.0000000  82.8520000  96.4990000
  31.0000000  81.8950000  96.4970000  31.9270000  83.0920000  96.5000000
  45.7780000  85.6030000  90.3310000  45.5010000  86.2820000  90.9460000
  44.9970000  85.4190000  89.8080000  31.0010000  36.4450000  74.9730000
  31.1990000  36.0770000  75.8340000  31.1030000  37.3910000  75.0870000
  57.6510000  63.0830000  59.4130000  58.5220000  62.7400000  59.6140000
  57.1390000  62.9160000  60.2050000  65.2670000  55.4050000  56.5010000
  64.7360000  56.0240000  56.0000000  65.0830000  54.5540000  56.1020000
  73.8210000  44.0690000  74.8770000  73.9840000  43.1610000  74.6240000
  74.6930000  44.4340000  75.0370000  31.5870000  81.8300000  59.2640000
  31.0200000  81.1270000  58.9480000  31.0000000  82.5780000  59.3800000
  83.4270000  75.4400000  83.8220000  84.1480000  75.2430000  84.4190000
  83.3210000  74.6440000  83.3010000  47.9240000  44.0880000  60.6110000
  47.2570000  44.4880000  60.0540000  47.5870000  44.1920000  61.5010000
  65.9090000  86.1510000  58.6590000  66.7950000  85.8630000  58.8760000
  65.4050000  85.3400000  58.5820000  71.6960000  51.6020000  79.6560000
  71.6950000  51.6800000  78.7030000  71.3870000  52.4540000  79.9670000
  56.7660000  50.2170000  78.8230000  56.4230000  51.1090000  78.7680000
  57.5500000  50.2950000  79.3670000  87.9330000  41.2470000  65.8520000
  88.8490000  40.9820000  65.9330000  87.4430000  40.4230000  65.8620000
  54.3100000  66.4290000  73.5780000  53.6080000  66.5560000  74.2160000
  54.7240000  65.6050000  73.8370000  57.9230000  56.9740000  66.5600000
  58.3110000  56.1170000  66.3810000  58.3110000  57.5540000  65.9040000
  56.2150000  74.4030000  76.9070000  56.8720000  74.1190000  76.2710000
  55.4040000  73.9830000  76.6190000  51.4240000  84.8100000  82.0160000
  52.1930000  84.3010000  82.2740000  51.7680000  85.6830000  81.8250000
  77.3820000  34.6280000  58.9650000  77.3810000  35.2030000  59.7290000
  77.1930000  33.7580000  59.3180000  77.8540000  42.6830000  62.8490000
  77.8010000  42.4890000  63.7850000  77.4540000  41.9240000  62.4240000
  55.5250000  83.7790000  88.8330000  56.2310000  83.2020000  89.1220000
  55.9540000  84.4180000  88.2630000  31.9880000  41.0580000  72.0650000
  31.0980000  41.3850000  71.9360000  32.4410000  41.7690000  72.5190000
  41.4140000  56.9230000  90.5070000  40.7320000  56.7190000  89.8680000
  40.9840000  56.8260000  91.3570000  85.7860000  58.7790000  56.0050000
  86.0910000  59.6860000  56.0000000  84.8310000  58.8470000  56.0060000
  88.6910000  88.9970000  88.7440000  88.9890000  88.6100000  87.9210000
  87.7360000  89.0010000  88.6760000  81.0650000  69.3990000  79.7290000
  80.1600000  69.7060000  79.6670000  81.5860000  70.1990000  79.7910000
  31.9250000  63.4430000  77.4420000  31.0090000  63.6740000  77.2920000
  32.3050000  63.3850000  76.5640000  88.6640000  50.1170000  78.6240000
  89.0000000  49.5480000  79.3160000  89.0000000  50.9870000  78.8430000
  84.9730000  58.5030000  89.3570000  85.7210000  58.2130000  88.8340000
  85.2460000  59.3470000  89.7180000  42.8380000  78.5920000  85.4020000
  43.2760000  77.8870000  84.9270000  43.3830000  79.3630000  85.2440000
  61.6440000  72.9000000  86.8200000  62.1250000  73.6880000  87.0690000
  60.7220000  73.1510000  86.8800000  31.0690000  31.2130000  86.0150000
  31.0000000  31.0000000  85.0850000  31.0060000  32.1680000  86.0490000
  44.0810000  83.7140000  84.2620000  44.8750000  83.9090000  84.7590000
  44.3550000  83.7560000  83.3450000  54.8610000  83.0690000  74.1150000
  53.9620000  83.0230000  73.7900000  54.8950000  82.4210000  74.8180000
  73.2690000  77.5720000  62.6920000  72.6460000  77.3600000  61.9970000
  74.1240000  77.5580000  62.2600000  31.0940000  38.4900000  61.0440000
  31.8440000  38.1150000  60.5830000  31.0000000  37.9500000  61.8290000
  64.0950000  79.6480000  77.7860000  64.1470000  79.6730000  78.7420000
  63.5360000  78.8950000  77.5960000  87.0720000  36.1810000  91.7750000
  86.9010000  36.0380000  92.7050000  86.3210000  36.6890000  91.4680000
  78.0870000  31.0000000  77.2480000  78.8720000  31.1990000  77.7560000
  78.2210000  31.4500000  76.4130000  31.0000000  58.6060000  74.5140000
  31.8910000  58.9560000  74.5120000  31.1080000  57.6740000  74.3200000
  88.4220000  65.6620000  73.8700000  89.0000000  66.3830000  74.1200000
  89.0000000  64.9010000  73.8120000  37.2480000  31.9190000  58.5240000
  37.6520000  31.0510000  58.5410000  37.9870000  32.5260000  58.4630000
  80.6350000  45.7650000  56.4450000  80.2440000  45.0000000  56.0230000
  80.2350000  46.5140000  56.0040000  56.7460000  81.1190000  72.4970000
  57.2270000  81.5880000  73.1790000  55.8260000  81.2140000  72.7440000
  61.3760000  41.8460000  91.3030000  61.1010000  40.9380000  91.4290000
  62.3310000  41.8190000  91.3720000  86.2440000  72.2670000  76.8470000
  85.3830000  72.5700000  77.1340000  86.3090000  72.5580000  75.9360000
  75.6640000  66.2880000  73.4340000  75.2600000  66.9910000  73.9430000
  75.3480000  66.4270000  72.5410000  86.3660000  62.9040000  78.5540000
  86.4170000  62.4320000  79.3850000  86.4800000  63.8240000  78.7930000
  65.9580000  51.1550000  83.4710000  66.5580000  51.3360000  82.7470000
  66.0750000  51.8930000  84.0700000  74.8950000  50.9770000  91.8800000
  75.7230000  51.4330000  91.7290000  74.2770000  51.3960000  91.2790000
  89.0000000  61.7230000  56.0470000  88.9540000  61.9220000  56.9820000
  88.9280000  60.7690000  56.0020000  50.2150000  82.5090000  86.2760000
  51.0570000  82.0550000  86.2770000  49.5640000  81.8070000  86.2550000
  58.9760000  62.5860000  83.7280000  58.0190000  62.5810000  83.7540000
  59.2090000  63.5140000  83.6860000  36.5300000  68.9250000  94.1600000
  35.6580000  69.1590000  94.4790000  36.6070000  67.9870000  94.3370000
  71.1520000  49.0500000  69.1010000  71.7100000  48.2740000  69.1330000
  71.7540000  49.7840000  69.2280000  51.1500000  88.9480000  59.8990000
  51.0420000  88.2480000  60.5430000  52.0950000  89.0000000  59.7580000
  66.7810000  70.4840000  93.5330000  67.2860000  70.8070000  92.7860000
  67.2710000  70.7810000  94.3000000  34.8010000  88.4130000  96.4810000
  34.0450000  89.0000000  96.5000000  35.5570000  88.9990000  96.4340000
  49.0070000  80.4820000  94.2440000  49.7750000  80.9960000  94.4960000
  49.3020000  79.9610000  93.4970000  51.6040000  31.0000000  87.4360000
  52.5600000  31.0160000  87.4420000  51.3580000  31.0070000  88.3610000
  63.2800000  37.4570000  92.3920000  63.7630000  37.6950000  93.1830000
  62.3920000  37.7800000  92.5460000  71.0100000  39.2810000  56.0000000
  70.2640000  38.8270000  56.3930000  71.7290000  38.6510000  56.0520000
  86.7250000  68.4970000  90.1010000  85.7800000  68.5790000  90.2310000
  86.9350000  69.1610000  89.4440000  69.6370000  61.3600000  61.2430000
  69.0100000  61.0740000  60.5790000  70.4660000  60.9600000  60.9790000
  88.1140000  40.2520000  63.1920000  89.0000000  40.4470000  63.4950000
  88.1240000  39.3120000  63.0080000  77.6120000  88.1870000  81.6070000
  77.8010000  88.9880000  81.1190000  76.7950000  87.8620000  81.2290000
  80.6630000  46.7340000  87.7000000  81.0710000  45.8700000  87.7580000
  80.2200000  46.7330000  86.8510000  38.8110000  42.9700000  65.2400000
  39.7520000  43.0840000  65.3710000  38.4540000  43.8580000  65.2820000
  36.4910000  72.8960000  96.4990000  37.4470000  72.9470000  96.4960000
  36.2020000  73.8090000  96.5000000  66.4290000  34.2170000  66.4320000
  67.3790000  34.1030000  66.4600000  66.1000000  33.3990000  66.0590000
  40.2870000  83.9450000  92.2020000  40.8180000  83.1660000  92.3670000
  39.8480000  84.1170000  93.0350000  50.1030000  58.2970000  64.6780000
  49.3680000  57.7240000  64.8950000  50.8110000  58.0090000  65.2540000
  80.2890000  32.3560000  58.9270000  79.3630000  32.5940000  58.8850000
  80.2900000  31.3990000  58.9410000  51.4680000  63.8990000  91.1770000
  51.3600000  63.3760000  90.3820000  50.8450000  63.5220000  91.7980000
  33.0840000  86.5210000  84.9270000  33.2760000  86.9210000  85.7750000
  32.3710000  85.9080000  85.1060000  52.6080000  70.8900000  72.6490000
  52.3200000  70.9570000  71.7390000  51.8030000  70.7430000  73.1460000
  39.2640000  62.9060000  61.6220000  39.8870000  62.2970000  62.0190000
  38.5750000  63.0050000  62.2790000  61.3570000  35.5550000  85.3460000
  60.6330000  35.4050000  85.9530000  62.1350000  35.2660000  85.8240000
  64.5410000  83.0850000  86.4800000  64.3820000  82.9810000  85.5420000
  63.9540000  82.4520000  86.8950000  77.6260000  58.4290000  77.6110000
  77.0140000  57.7620000  77.9240000  77.1750000  59.2590000  77.7670000
  75.0810000  42.7930000  56.8500000  74.6430000  42.8240000  56.0000000
  76.0020000  42.9680000  56.6510000  60.6090000  81.9150000  73.8470000
  60.8190000  82.8470000  73.9020000  59.7300000  81.8440000  74.2210000
  43.9820000  88.2690000  96.4990000  44.3170000  87.3730000  96.5000000
  43.0300000  88.1700000  96.4970000  39.0020000  54.1890000  81.3100000
  39.4180000  55.0460000  81.4030000  38.0630000  54.3770000  81.3110000
  56.1400000  74.3850000  58.4860000  56.4790000  73.6120000  58.0360000
  55.8130000  74.0530000  59.3220000  85.2810000  38.3290000  66.6420000
  86.1680000  38.5540000  66.9240000  85.3980000  37.5820000  66.0550000
  41.1590000  56.6610000  83.4020000  41.3900000  55.7930000  83.0740000
  41.9690000  56.9940000  83.7900000  58.2930000  38.2210000  89.6170000
  57.8150000  38.8430000  90.1650000  59.0710000  38.7010000  89.3310000
  88.7580000  71.0620000  90.5980000  88.9190000  70.1190000  90.6270000
  88.8990000  71.3570000  91.4980000  80.2230000  72.2860000  79.5940000
  79.4860000  72.1410000  80.1870000  79.8990000  72.0120000  78.7360000
  76.6530000  52.5780000  82.2360000  75.7930000  52.6430000  81.8220000
  76.6400000  53.2480000  82.9210000  77.9450000  31.0100000  67.1200000
  76.9940000  31.0950000  67.0550000  78.2670000  31.9120000  67.1250000
  31.0000000  74.6700000  86.6970000  31.0470000  75.1250000  87.5380000
  31.8320000  74.2000000  86.6320000  69.9450000  54.8200000  61.1910000
  69.0010000  54.7610000  61.3390000  70.1160000  55.7580000  61.1020000
  65.3290000  58.7250000  92.9620000  65.8460000  59.5230000  92.8490000
  64.7260000  58.9300000  93.6770000  75.9230000  76.7560000  71.8290000
  75.2800000  77.0220000  72.4870000  76.2990000  77.5790000  71.5150000
  67.9590000  78.1060000  94.5750000  67.4510000  78.8980000  94.7480000
  68.6470000  78.3890000  93.9720000  74.8100000  65.1000000  69.3730000
  74.1020000  65.7230000  69.2080000  75.3730000  65.5400000  70.0110000
  32.4430000  69.2400000  66.8860000  32.9790000  68.7920000  66.2330000
  31.6040000  68.7770000  66.8660000  33.2070000  59.7210000  62.6020000
  32.7540000  59.8580000  61.7710000  34.0670000  59.3800000  62.3540000
  36.9420000  79.5680000  77.4230000  36.8190000  79.1980000  78.2970000
  37.7540000  79.1720000  77.1070000  41.8780000  83.1390000  56.0640000
  42.0820000  82.9250000  56.9740000  40.9280000  83.0370000  56.0000000
  32.7760000  31.5380000  81.4900000  33.3090000  31.0000000  80.9040000
  32.0050000  31.0000000  81.6750000  64.7740000  80.4400000  91.8780000
  65.6980000  80.4060000  91.6320000  64.6010000  81.3690000  92.0330000
  43.3030000  81.4470000  67.7190000  42.7000000  80.7990000  67.3550000
  43.6510000  81.0340000  68.5100000  64.7660000  48.6300000  91.9100000
  64.4070000  48.1860000  91.1420000  65.6490000  48.8890000  91.6470000
  80.9680000  62.5540000  81.0360000  80.4640000  62.9860000  81.7260000
  80.7280000  63.0210000  80.2350000  43.1850000  81.5870000  64.4710000
  43.5790000  82.3520000  64.8890000  43.6890000  81.4670000  63.6660000
  84.3310000  70.2630000  78.8400000  85.1040000  69.9260000  78.3890000
  84.6660000  70.6030000  79.6700000  38.7040000  36.0280000  64.0780000
  38.4620000  35.1590000  63.7570000  39.4300000  36.2980000  63.5150000
  67.8050000  56.4970000  62.6960000  67.3120000  57.2830000  62.9290000
  68.7090000  56.6980000  62.9420000  81.0040000  63.5390000  64.6930000
  81.1340000  62.8870000  65.3810000  80.2680000  64.0690000  65.0010000
  52.8770000  34.1000000  65.2840000  52.2970000  34.8460000  65.1350000
  52.8330000  33.9470000  66.2280000  58.2170000  36.3050000  87.2770000
  58.3350000  35.8880000  88.1310000  58.6220000  37.1670000  87.3740000
  58.4460000  66.2090000  75.1310000  58.4570000  65.7240000  75.9560000
  58.7950000  67.0720000  75.3560000  79.1620000  57.2530000  90.0540000
  79.5370000  57.8590000  90.6930000  78.5210000  56.7450000  90.5530000
  83.4480000  61.5650000  68.5160000  83.4450000  60.6210000  68.3540000
  82.5520000  61.7640000  68.7880000  84.5570000  70.1330000  68.6770000
  85.3770000  69.6440000  68.6170000  84.0300000  69.8070000  67.9470000
  50.9050000  75.8130000  57.8770000  50.6730000  74.9010000  58.0520000
  51.7880000  75.9090000  58.2350000  73.2960000  74.6400000  63.0780000
  73.6370000  75.3030000  63.6780000  73.5230000  74.9660000  62.2060000
  86.5270000  31.9190000  93.8680000  85.9680000  32.3780000  94.4950000
  86.1960000  31.0200000  93.8640000  34.7580000  49.1740000  93.4910000
  33.9630000  48.9470000  93.9730000  35.1280000  48.3310000  93.2280000
  57.3420000  77.8780000  83.8070000  56.5720000  77.5360000  83.3530000
  57.3010000  77.4840000  84.6790000  79.6410000  88.9590000  56.8210000
  80.3110000  89.0000000  57.5030000  80.1310000  89.0000000  56.0000000
  79.5050000  52.7880000  61.5340000  78.7170000  52.7670000  60.9920000
  79.2730000  52.2830000  62.3140000  45.9720000  57.1620000  79.3320000
  45.8600000  57.0330000  80.2730000  46.6530000  56.5370000  79.0830000
  34.4930000  46.4960000  83.3180000  34.1120000  45.9300000  83.9890000
  33.7700000  47.0590000  83.0410000  85.9680000  60.0910000  83.7310000
  85.7680000  59.8930000  82.8160000  85.1270000  60.0140000  84.1830000
  82.1080000  47.1290000  64.1430000  81.2350000  47.3400000  63.8130000
  82.5340000  46.6710000  63.4180000  67.7940000  88.1860000  74.5390000
  67.4260000  89.0000000  74.8830000  67.3170000  88.0330000  73.7230000
  44.9840000  42.7130000  71.5870000  44.8500000  42.4050000  70.6910000
  45.9360000  42.7630000  71.6840000  33.2420000  70.0930000  93.5980000
  33.1860000  70.9360000  94.0470000  33.8000000  70.2620000  92.8390000
  69.0330000  77.7650000  76.6960000  69.4200000  78.1280000  77.4920000
  68.2420000  78.2860000  76.5540000  60.7820000  31.8730000  96.5000000
  61.7280000  31.9520000  96.3720000  60.4640000  32.7760000  96.4960000
  40.8000000  48.9470000  65.9640000  39.8460000  48.9340000  65.8970000
  41.0820000  48.1360000  65.5410000  50.0780000  33.9470000  82.5420000
  49.7800000  33.3600000  83.2370000  49.2950000  34.1150000  82.0180000
  85.4380000  57.2300000  86.5170000  85.1340000  56.5780000  85.8850000
  85.4700000  58.0480000  86.0200000  48.2150000  48.7440000  86.7890000
  47.8830000  48.7030000  85.8930000  48.5270000  49.6440000  86.8880000
  39.8910000  31.7020000  67.5390000  40.5690000  32.3140000  67.2510000
  39.2340000  32.2540000  67.9630000  58.0150000  38.8010000  61.6380000
  58.2720000  39.4640000  62.2790000  58.7850000  38.6980000  61.0790000
  41.5750000  41.8870000  64.1470000  41.8100000  42.8000000  63.9800000
  42.4130000  41.4250000  64.1740000  77.9060000  79.5290000  89.7990000
  76.9770000  79.4920000  89.5700000  77.9240000  79.4070000  90.7490000
  33.5780000  76.2540000  71.4320000  33.2430000  75.4090000  71.1330000
  33.8990000  76.0850000  72.3180000  75.0910000  31.6000000  83.0890000
  74.4460000  31.0000000  83.4650000  75.7470000  31.0280000  82.6900000
  60.4320000  76.6320000  64.2950000  60.6900000  77.5520000  64.2400000
  59.6950000  76.6250000  64.9060000  68.7100000  52.6740000  62.6830000
  69.5800000  52.9170000  62.9980000  68.8630000  52.3100000  61.8110000
  37.6570000  45.8220000  56.8360000  37.7130000  44.8780000  56.9870000
  36.7210000  46.0170000  56.8850000  73.3330000  88.4790000  77.6220000
  74.0900000  89.0000000  77.3540000  72.5760000  89.0000000  77.3520000
  35.9640000  83.3720000  93.9780000  36.3650000  83.1230000  94.8100000
  36.0280000  82.5860000  93.4360000  60.2350000  69.3450000  75.3330000
  59.7560000  70.0020000  75.8380000  61.1430000  69.6490000  75.3440000
  56.8180000  40.5700000  77.1760000  55.9920000  40.7840000  76.7420000
  56.7880000  39.6200000  77.2930000  58.2810000  31.1350000  65.4920000
  58.2460000  31.0530000  64.5390000  59.2030000  31.0000000  65.7110000
  31.0200000  37.0290000  83.3760000  31.0000000  37.4450000  84.2370000
  31.1130000  36.0950000  83.5620000  51.2090000  46.6780000  67.8830000
  51.7760000  47.4480000  67.9120000  51.1780000  46.3680000  68.7890000
  55.7950000  35.3620000  67.3500000  55.1680000  36.0480000  67.1220000
  55.4250000  34.9480000  68.1300000  86.2350000  44.8530000  79.7140000
  85.8700000  43.9680000  79.7200000  85.4700000  45.4280000  79.6810000
  48.2520000  60.5750000  66.5400000  48.5360000  59.6820000  66.3480000
  47.9370000  60.9120000  65.7010000  82.5800000  65.1350000  67.7430000
  82.7140000  64.1940000  67.8530000  81.6580000  65.2180000  67.4950000
  48.4340000  36.4180000  96.4580000  48.7970000  36.1760000  95.6060000
  48.5340000  37.3690000  96.5000000  65.8910000  69.9850000  78.7650000
  66.5640000  69.3170000  78.6410000  66.0950000  70.3770000  79.6150000
  49.0730000  31.0250000  64.5080000  49.7270000  30.9980000  63.8090000
  49.5860000  31.0150000  65.3170000  31.0000000  88.5110000  94.8600000
  31.2550000  88.9380000  95.6780000  31.4630000  89.0000000  94.1790000
  76.4490000  42.9090000  73.3840000  77.0930000  43.5970000  73.5540000
  75.7710000  43.3390000  72.8630000  31.0000000  85.1310000  61.6480000
  31.2320000  84.3980000  61.0780000  31.3580000  84.8930000  62.5030000
  53.0570000  49.8360000  79.4760000  53.9940000  50.0070000  79.5670000
  52.9930000  48.8850000  79.3890000  69.1330000  45.0730000  93.4590000
  68.3040000  44.8170000  93.8620000  68.9050000  45.8040000  92.8840000
  80.3190000  45.4290000  96.4370000  79.3660000  45.4970000  96.5000000
  80.5990000  46.2830000  96.1080000  88.9560000  81.2080000  66.1190000
  88.9970000  82.0260000  66.6140000  89.0000000  80.5220000  66.7850000
  77.9370000  56.0240000  94.1620000  77.2330000  55.3800000  94.0850000
  77.4880000  56.8500000  94.3450000  56.2350000  32.2360000  78.0790000
  57.1240000  32.5520000  77.9200000  55.8490000  32.8900000  78.6620000
  33.2830000  84.1080000  66.3170000  34.2110000  83.8750000  66.3620000
  32.9800000  83.7280000  65.4920000  58.9620000  37.9270000  56.2380000
  59.7650000  38.3900000  56.0000000  59.2310000  37.0120000  56.3300000
  52.4620000  51.1800000  57.3370000  51.5200000  51.0190000  57.2890000
  52.7360000  50.7560000  58.1520000  45.9190000  34.0240000  86.2930000
  46.4380000  34.7830000  86.5580000  46.5670000  33.3520000  86.0800000
  61.1840000  36.0540000  63.3960000  61.1450000  36.0480000  64.3520000
  62.0100000  35.6170000  63.1870000  88.5430000  64.3840000  82.5270000
  88.9990000  65.2020000  82.3310000  89.0000000  64.0310000  83.2900000
  45.3130000  78.5870000  56.0170000  44.4550000  79.0110000  56.0000000
  45.1170000  77.6500000  56.0210000  32.3460000  83.1480000  85.0110000
  31.8950000  83.2690000  84.1750000  33.2760000  83.2260000  84.7950000
  42.1070000  52.1560000  56.0180000  41.9240000  53.0950000  56.0000000
  42.0370000  51.9150000  56.9420000  48.1360000  64.2750000  84.1690000
  47.3470000  63.7570000  84.3230000  47.8190000  65.1740000  84.0770000
  79.4770000  70.9740000  75.7020000  80.0590000  71.4340000  75.0990000
  78.6590000  70.8710000  75.2150000  71.8710000  72.6750000  77.6890000
  72.6250000  73.2650000  77.6770000  71.1150000  73.2550000  77.7840000
  65.1880000  58.4870000  78.8410000  65.9890000  59.0020000  78.7500000
  64.4910000  59.1390000  78.9210000  70.9950000  45.9340000  73.1790000
  71.7040000  45.6110000  72.6230000  71.0980000  45.4570000  74.0020000
  50.7320000  50.4700000  91.5630000  49.9990000  50.4990000  90.9480000
  50.9330000  49.5380000  91.6510000  44.5420000  77.1550000  94.4740000
  45.2610000  76.5880000  94.1940000  44.7200000  77.9950000  94.0510000
  76.7070000  71.1640000  91.1490000  77.4660000  70.8540000  91.6440000
  76.0300000  71.3050000  91.8110000  68.0510000  49.1400000  60.9300000
  67.4940000  49.9180000  60.9060000  68.5100000  49.1470000  60.0900000
  65.7960000  63.0730000  81.7190000  65.2040000  63.8010000  81.5310000
  66.6680000  63.4140000  81.5170000  70.1940000  88.0350000  90.1470000
  70.9490000  87.4490000  90.0970000  69.5050000  87.5060000  90.5500000
  34.0770000  60.1260000  71.5480000  34.4040000  60.9000000  71.0890000
  33.8190000  60.4510000  72.4110000  51.8050000  59.1180000  84.8600000
  52.7140000  59.1160000  84.5600000  51.6470000  60.0200000  85.1400000
  65.3420000  62.2850000  85.4780000  64.9930000  63.0210000  85.9810000
  64.7990000  61.5390000  85.7360000  40.3010000  47.2740000  92.2010000
  40.5490000  46.3540000  92.1090000  39.6920000  47.4320000  91.4790000
  88.9990000  85.6850000  83.8760000  88.9020000  86.6120000  83.6600000
  88.1030000  85.3720000  84.0030000  60.2600000  52.5210000  79.0100000
  60.6630000  52.4630000  79.8760000  59.5700000  51.8570000  79.0210000
  61.3660000  63.3180000  89.4920000  60.8860000  64.1460000  89.5100000
  60.7590000  62.6810000  89.8700000  45.3980000  65.2170000  68.9900000
  46.1890000  64.6800000  69.0520000  45.0040000  65.1650000  69.8610000
  85.3250000  35.4130000  75.0190000  85.8010000  36.0830000  75.5090000
  84.5600000  35.8710000  74.6690000  55.3000000  71.0900000  86.6000000
  55.2940000  70.2460000  87.0520000  54.3800000  71.2570000  86.3920000
  62.5310000  44.1460000  96.4650000  61.6120000  44.4130000  96.5000000
  62.9200000  44.7150000  95.8010000  34.3010000  47.2360000  95.8310000
  34.5870000  46.3550000  95.5890000  33.6300000  47.0950000  96.5000000
  76.5830000  80.5980000  70.0120000  77.1760000  79.8630000  70.1690000
  75.7250000  80.1930000  69.8840000  39.0930000  35.0890000  58.4880000
  39.6670000  35.7670000  58.1310000  39.6780000  34.3540000  58.6760000
  35.1020000  69.1990000  78.7790000  34.8470000  69.7970000  78.0770000
  34.7220000  69.5820000  79.5700000  61.8730000  37.5240000  76.5230000
  61.4860000  37.1730000  77.3240000  62.7370000  37.8390000  76.7920000
  88.9910000  56.4790000  80.1760000  88.9340000  56.5530000  81.1280000
  89.0000000  55.5360000  80.0090000  85.2750000  77.3720000  72.8310000
  86.1050000  77.0260000  72.5040000  85.5100000  78.1950000  73.2610000
  76.0790000  59.1990000  80.6020000  75.7250000  58.7450000  79.8370000
  77.0170000  59.2710000  80.4240000  35.5180000  79.8050000  56.0370000
  36.2710000  80.3960000  56.0460000  35.9010000  78.9280000  56.0000000
  77.9690000  61.0380000  85.8690000  77.9220000  61.1600000  86.8170000
  78.9050000  60.9440000  85.6850000  58.6270000  65.4880000  93.9920000
  57.7370000  65.8360000  94.0540000  58.5120000  64.5370000  93.9710000
  35.6100000  45.1700000  80.3090000  35.6450000  44.3050000  80.7170000
  35.1680000  45.7220000  80.9540000  36.9550000  48.7290000  73.7090000
  37.8800000  48.8160000  73.4790000  36.9440000  48.7510000  74.6670000
  66.6970000  58.1700000  73.4070000  66.0270000  57.5040000  73.5600000
  66.8790000  58.1160000  72.4680000  67.4510000  80.8640000  58.9490000
  67.8150000  81.1780000  59.7770000  68.1020000  80.2440000  58.6200000
  57.2610000  37.6800000  93.1100000  56.5100000  38.0210000  92.6250000
  56.8840000  37.0540000  93.7280000  38.1400000  73.3760000  60.1250000
  37.4770000  72.8170000  59.7190000  38.9680000  72.9230000  59.9610000
  85.8560000  71.9720000  67.1930000  86.6330000  71.4190000  67.1120000
  86.0560000  72.5610000  67.9210000  64.6920000  55.9520000  91.3670000
  64.7920000  56.9030000  91.3360000  65.3720000  55.6200000  90.7810000
  55.2110000  40.5860000  68.6380000  55.4590000  41.4910000  68.8270000
  56.0110000  40.0820000  68.7880000  52.7140000  72.6220000  77.8900000
  52.5020000  72.4210000  78.8010000  52.7210000  73.5790000  77.8510000
  31.0300000  60.9280000  89.8110000  31.9460000  60.7560000  89.5940000
  31.0000000  61.8670000  89.9950000  34.4500000  41.6670000  74.9340000
  34.2580000  41.1810000  74.1320000  35.0740000  41.1150000  75.4060000
  51.7470000  85.0760000  56.1060000  51.0440000  84.4360000  56.0000000
  52.0640000  84.9390000  56.9990000  40.0420000  42.4010000  96.4990000
  40.5290000  42.2330000  95.6920000  39.8990000  43.3480000  96.5000000
  81.5340000  70.8520000  88.3780000  81.5770000  70.3190000  89.1710000
  82.1260000  71.5850000  88.5490000  42.1450000  61.0430000  81.1090000
  42.1260000  61.9970000  81.1830000  43.0760000  60.8250000  81.0570000
  64.5560000  53.5950000  88.1700000  64.1880000  52.9300000  87.5890000
  64.6310000  53.1570000  89.0190000  66.3570000  71.9700000  56.5250000
  66.6760000  72.7040000  56.0000000  65.6310000  71.6090000  56.0170000
  80.6620000  33.4800000  95.8920000  81.3790000  33.6610000  96.5000000
  79.9070000  33.3070000  96.4560000  31.0280000  51.6470000  91.8040000
  31.0150000  52.1270000  92.6320000  31.0000000  52.3280000  91.1320000
  56.4990000  44.0180000  83.2000000  55.7220000  43.7150000  83.6690000
  57.1520000  44.1590000  83.8860000  70.4380000  75.9640000  92.9450000
  70.8740000  76.7990000  92.7770000  71.1420000  75.3770000  93.2200000
  67.1850000  73.8400000  72.9130000  67.1720000  73.2220000  73.6430000
  66.7870000  74.6360000  73.2660000  42.1180000  34.8400000  87.1280000
  42.1080000  33.9240000  87.4060000  43.0420000  35.0320000  86.9700000
  31.4700000  89.0000000  56.2720000  32.4220000  88.9760000  56.1760000
  31.1800000  88.1290000  56.0000000  50.0040000  74.6200000  87.5070000
  50.0470000  75.4420000  87.9950000  50.2230000  73.9470000  88.1520000
  49.1500000  38.0300000  82.3230000  48.9550000  37.1110000  82.1370000
  50.0280000  38.0170000  82.7040000  31.0200000  71.4380000  74.2960000
  31.0960000  72.3560000  74.0360000  31.0000000  71.4610000  75.2530000
  55.7940000  78.8060000  90.1760000  55.6320000  77.9200000  90.4990000
  54.9370000  79.1150000  89.8830000  58.4220000  43.3230000  96.0490000
  59.0090000  43.9500000  95.6270000  57.7750000  43.8650000  96.5000000
  67.6830000  86.4180000  83.8080000  66.8890000  86.8570000  84.1130000
  68.2750000  87.1320000  83.5690000  81.6430000  72.2810000  61.4440000
  82.0770000  72.3880000  60.5970000  80.7420000  72.0440000  61.2230000
  50.2270000  52.8960000  70.5190000  50.0370000  53.8330000  70.5640000
  51.0110000  52.8360000  69.9720000  72.2360000  66.8210000  81.5070000
  71.4270000  67.3240000  81.5940000  72.5880000  67.0790000  80.6540000
  50.9080000  32.2840000  93.7450000  50.5480000  32.7630000  92.9990000
  50.8540000  31.3640000  93.4880000  88.4910000  43.6550000  80.3980000
  89.0000000  44.4260000  80.1500000  88.9990000  42.9150000  80.0640000
  48.3940000  58.1150000  81.2960000  48.2240000  57.1780000  81.2070000
  47.5270000  58.5050000  81.4180000  81.0430000  31.8330000  56.0000000
  81.0920000  31.0000000  56.4690000  81.9360000  32.1760000  56.0250000
  89.0000000  31.2110000  68.8810000  88.1000000  31.0000000  68.6310000
  88.9340000  31.5100000  69.7880000  31.2920000  64.6800000  88.0860000
  31.0720000  64.0430000  88.7660000  32.2020000  64.9170000  88.2640000
  72.9350000  37.3150000  74.5220000  72.0840000  36.8800000  74.4720000
  72.7270000  38.2490000  74.5190000  87.8050000  59.3570000  78.9010000
  87.1990000  60.0950000  78.9600000  88.6740000  59.7600000  78.8970000
  48.0270000  72.1910000  59.6620000  48.3930000  72.8650000  59.0890000
  48.7440000  71.9640000  60.2550000  47.1720000  54.7340000  62.9620000
  47.8090000  54.8180000  62.2530000  47.1750000  55.5900000  63.3900000
  70.0990000  74.3210000  75.3610000  69.8240000  74.6940000  76.1990000
  69.4310000  73.6650000  75.1610000  46.7200000  73.3500000  56.8290000
  46.2860000  73.5510000  56.0000000  46.0070000  73.1180000  57.4240000
  43.8960000  44.0900000  73.6590000  43.3920000  44.3680000  74.4230000
  44.3750000  43.3160000  73.9560000  85.5430000  39.7470000  58.6610000
  86.3710000  39.2740000  58.7360000  84.9060000  39.0790000  58.4070000
  38.8650000  77.1940000  69.4450000  37.9350000  77.3720000  69.5820000
  39.3140000  77.9440000  69.8360000  58.4350000  77.1770000  57.9620000
  59.3460000  77.4670000  57.9310000  58.4870000  76.2220000  57.9890000
  75.2500000  66.6090000  56.6190000  75.1250000  65.8900000  56.0000000
  75.2560000  67.3970000  56.0740000  81.3250000  61.7410000  59.2420000
  81.8950000  62.2360000  58.6550000  80.6610000  62.3720000  59.5200000
  57.8080000  83.5860000  86.7790000  57.0870000  83.1390000  86.3360000
  58.5980000  83.2260000  86.3760000  76.0850000  31.4920000  89.8610000
  76.8070000  31.0060000  90.2580000  75.3010000  31.0000000  90.1050000
  31.0400000  75.7970000  83.3480000  31.5670000  75.4540000  84.0690000
  31.0000000  75.0780000  82.7170000  33.3310000  31.4860000  66.6130000
  33.6570000  32.3020000  66.2350000  32.9770000  31.0000000  65.8680000
  82.4150000  58.5570000  84.4690000  81.8910000  58.4330000  83.6780000
  83.3020000  58.3060000  84.2110000  73.2740000  69.6740000  62.8340000
  74.1440000  69.6240000  63.2300000  73.4290000  69.5510000  61.8980000
  57.4180000  38.2900000  58.8030000  58.0050000  37.5350000  58.7570000
  56.6070000  37.9880000  58.3940000  85.7540000  47.2180000  56.7980000
  86.0200000  47.8470000  57.4690000  85.5480000  47.7570000  56.0330000
  76.2130000  86.9400000  67.9410000  75.6280000  86.2450000  67.6400000
  76.4070000  86.7120000  68.8510000  47.2140000  77.0950000  67.6550000
  46.3560000  76.7860000  67.9420000  47.2950000  77.9690000  68.0400000
  54.3020000  37.2860000  90.9210000  53.8630000  37.8050000  90.2480000
  54.1100000  37.7420000  91.7410000  39.0210000  72.2320000  90.3970000
  38.5750000  72.8220000  91.0050000  39.9120000  72.5790000  90.3360000
  60.3320000  50.9560000  62.4750000  60.4690000  50.7150000  63.3910000
  60.9710000  50.4320000  61.9910000  41.0940000  86.3170000  81.3590000
  41.0300000  87.2720000  81.3590000  42.0150000  86.1390000  81.1640000
  66.4400000  71.5330000  59.4500000  66.2540000  71.0830000  60.2740000
  66.4330000  72.4630000  59.6760000  49.1310000  79.1520000  79.3160000
  49.7740000  78.7160000  78.7580000  49.2890000  80.0870000  79.1800000
  50.2460000  51.2420000  60.4480000  50.4890000  52.0890000  60.8200000
  51.0550000  50.9100000  60.0580000  54.6470000  67.2490000  66.8490000
  53.7220000  67.0140000  66.7710000  55.0720000  66.7980000  66.1180000
  58.4740000  67.1430000  82.5910000  59.2490000  66.6420000  82.3370000
  57.7650000  66.5000000  82.6010000  60.2460000  36.0770000  93.3760000
  59.3220000  35.9170000  93.1850000  60.6190000  35.2040000  93.5040000
  67.4670000  31.5770000  94.9570000  67.5080000  31.0010000  95.7200000
  67.6310000  31.0000000  94.2110000  50.8600000  35.8370000  81.1060000
  51.1330000  35.1200000  80.5340000  51.5660000  36.4810000  81.0370000
  75.8650000  38.9920000  84.1220000  76.4050000  39.7790000  84.1890000
  74.9690000  39.3050000  84.2450000  73.9510000  41.7420000  68.8750000
  73.3240000  41.7260000  68.1520000  73.5220000  42.2650000  69.5530000
  61.2590000  81.7060000  83.8810000  61.2420000  80.7970000  84.1790000
  62.0540000  81.7710000  83.3520000  78.6180000  34.3570000  56.0250000
  77.6680000  34.2490000  56.0000000  78.9600000  33.4650000  56.0810000
  63.3750000  76.3940000  65.7350000  62.6450000  76.8040000  66.1990000
  63.3760000  76.8110000  64.8730000  59.9600000  68.7380000  64.1080000
  59.5020000  69.5780000  64.1160000  60.8890000  68.9710000  64.1050000
  76.1440000  58.0070000  56.0270000  77.0310000  57.6480000  56.0000000
  76.2580000  58.9030000  56.3440000  88.7090000  65.2310000  95.5870000
  88.9960000  65.2340000  96.5000000  89.0000000  66.0760000  95.2420000
  62.1590000  34.3560000  79.4740000  62.5520000  34.5590000  80.3230000
  62.1430000  35.1940000  79.0110000  86.6700000  79.1470000  88.7920000
  86.9340000  78.2340000  88.9020000  85.8220000  79.1000000  88.3490000
  64.8280000  81.2270000  89.4360000  63.9270000  81.3960000  89.1600000
  65.3340000  81.9430000  89.0520000  82.4530000  33.7720000  80.9980000
  82.0440000  34.1390000  80.2150000  81.7420000  33.3150000  81.4480000
  75.6780000  68.2970000  70.8650000  75.3080000  68.8310000  71.5670000
  74.9240000  68.0500000  70.3280000  31.6100000  80.8240000  85.5640000
  31.0000000  80.2970000  86.0800000  31.1740000  80.9380000  84.7190000
  61.1090000  85.9250000  62.4220000  61.5230000  86.6840000  62.8310000
  60.6430000  85.4910000  63.1370000  31.7750000  32.9900000  83.5070000
  32.5060000  33.6070000  83.5310000  31.0000000  33.5300000  83.6600000
  49.2370000  55.5340000  76.5650000  49.1840000  54.9120000  77.2900000
  48.4300000  56.0460000  76.6280000  48.6760000  38.1260000  59.0240000
  49.4380000  37.8520000  58.5130000  47.9320000  37.9950000  58.4360000
  34.1990000  71.7420000  70.4860000  34.0990000  71.3810000  69.6050000
  34.8180000  71.1530000  70.9180000  48.2880000  63.0900000  79.3530000
  47.3890000  62.7730000  79.4270000  48.8230000  62.2960000  79.3470000
  31.5860000  86.4240000  92.0560000  31.0000000  86.1040000  91.3700000
  31.0000000  86.7610000  92.7340000  41.6490000  56.7080000  69.2080000
  42.3230000  56.1710000  69.6230000  41.4630000  56.2640000  68.3800000
  34.7380000  52.7500000  60.1800000  35.0710000  53.5400000  60.6040000
  35.4430000  52.4780000  59.5920000  75.4070000  83.8980000  92.2260000
  74.5450000  84.3010000  92.1250000  75.9790000  84.6180000  92.4930000
  54.6090000  56.1990000  88.3300000  54.8540000  57.0460000  87.9590000
  53.6830000  56.2940000  88.5540000  58.2190000  68.8230000  56.0050000
  58.4160000  67.8870000  56.0000000  59.0770000  69.2480000  56.0050000
  66.7670000  55.9240000  93.2410000  67.2680000  55.4460000  92.5790000
  67.0590000  55.5550000  94.0750000  88.7680000  70.4620000  87.6190000
  88.9950000  71.3880000  87.7030000  88.9990000  70.2390000  86.7170000
  55.8610000  54.6970000  91.7220000  56.3470000  53.9260000  92.0150000
  56.5340000  55.2980000  91.4010000  86.0190000  62.1810000  81.8400000
  86.0390000  63.1370000  81.8890000  85.1190000  61.9720000  81.5880000
  52.6180000  76.7060000  82.5740000  53.4760000  76.3290000  82.7660000
  52.6990000  77.0460000  81.6830000  46.7070000  64.2290000  94.6590000
  45.9510000  64.0020000  95.2010000  46.3270000  64.5260000  93.8320000
  61.3760000  67.8670000  67.3360000  61.3430000  68.2070000  66.4420000
  60.5180000  68.0800000  67.7050000  55.6850000  76.4690000  75.4460000
  56.1040000  76.4300000  74.5870000  55.1960000  77.2920000  75.4380000
  51.5770000  47.7820000  82.2630000  51.3240000  48.6460000  81.9390000
  51.3720000  47.8070000  83.1980000  56.4680000  54.2840000  56.0000000
  55.6080000  53.8660000  56.0000000  56.2790000  55.2230000  56.0000000
  77.3910000  63.9800000  56.0140000  76.4570000  63.7750000  56.0320000
  77.8240000  63.1260000  56.0000000  79.4980000  75.8300000  64.8220000
  79.5830000  76.6160000  64.2820000  80.3360000  75.3770000  64.7210000
  56.9980000  53.3120000  72.3240000  56.1400000  53.7360000  72.3140000
  56.8070000  52.3880000  72.4900000  74.6580000  32.1450000  79.3630000
  74.0360000  32.7910000  79.0300000  74.1330000  31.5740000  79.9240000
  76.2880000  42.1200000  69.6770000  77.1490000  42.3370000  69.3190000
  75.9050000  42.9660000  69.9090000  33.9990000  40.6880000  69.0430000
  34.7500000  41.2470000  68.8450000  33.4940000  41.1840000  69.6880000
  77.9000000  59.2840000  65.2650000  77.8750000  58.3640000  65.5280000
  78.8310000  59.5100000  65.2740000  52.4070000  69.7730000  59.7830000
  52.5800000  69.5330000  58.8720000  51.4850000  70.0310000  59.7910000
  77.0320000  54.4360000  63.3820000  77.9100000  54.8150000  63.4020000
  77.1790000  53.4910000  63.3380000  88.9780000  85.5180000  91.3680000
  88.7060000  84.6440000  91.0890000  89.0000000  85.4690000  92.3240000
  60.2890000  86.8920000  89.4350000  59.9340000  87.7540000  89.2180000
  59.8150000  86.6290000  90.2240000  61.9460000  70.7960000  88.6570000
  61.6660000  70.3300000  87.8690000  62.8940000  70.8840000  88.5600000
  68.1670000  55.2950000  65.2280000  67.7680000  56.1650000  65.1950000
  68.5080000  55.2210000  66.1190000  78.7720000  80.2920000  84.1570000
  78.6780000  81.2410000  84.0800000  77.8780000  79.9720000  84.2820000
  38.9690000  46.8520000  58.7070000  38.2160000  47.4410000  58.6570000
  39.7290000  47.4340000  58.7040000  79.9500000  36.4590000  87.2640000
  79.9650000  37.4120000  87.1780000  80.8660000  36.1950000  87.1670000
  48.6160000  47.3800000  66.4560000  47.8260000  47.8370000  66.7450000
  48.7030000  46.6440000  67.0630000  72.2020000  80.7450000  84.6250000
  71.3050000  80.4250000  84.5300000  72.1030000  81.6540000  84.9090000
  75.0030000  81.4250000  58.7090000  75.2920000  81.1150000  57.8510000
  75.3620000  80.7880000  59.3270000  53.9810000  47.0010000  96.4120000
  54.0850000  47.9100000  96.1310000  54.8770000  46.6730000  96.5000000
  62.4580000  51.4320000  89.3320000  62.0360000  50.5820000  89.4540000
  62.1850000  51.7120000  88.4570000  56.5190000  67.1190000  91.8020000
  55.6050000  66.8980000  91.9810000  56.9080000  66.3000000  91.4970000
  55.6160000  88.6390000  92.3490000  55.0370000  89.0000000  93.0200000
  55.1880000  87.8270000  92.0760000  77.3520000  68.2650000  68.6720000
  78.1970000  68.5510000  69.0200000  77.2040000  67.4100000  69.0770000
  78.6670000  67.4730000  93.7250000  79.0880000  66.7290000  94.1560000
  77.7400000  67.3870000  93.9500000  83.7440000  74.4600000  73.7770000
  83.5890000  75.3980000  73.6700000  83.7300000  74.3210000  74.7250000
  41.8380000  82.9980000  86.5440000  42.2180000  82.6600000  85.7330000
  40.9000000  83.0620000  86.3610000  59.0280000  43.8910000  86.1570000
  59.4030000  44.3970000  86.8770000  59.1790000  44.4300000  85.3800000
  74.5530000  82.6400000  71.9250000  74.2700000  83.3780000  71.3860000
  75.1200000  82.1260000  71.3490000  35.4640000  70.5840000  85.7980000
  36.2700000  71.1000000  85.8080000  34.8830000  71.0570000  85.2020000
  38.8440000  41.1060000  81.6740000  38.3900000  40.5760000  82.3290000
  39.7050000  40.6960000  81.5880000  63.8340000  31.8700000  86.9400000
  63.0640000  32.4140000  86.7760000  63.4780000  31.0000000  87.1250000
  83.5150000  64.6530000  93.5840000  83.4470000  64.8480000  92.6490000
  83.9030000  65.4400000  93.9660000  69.6400000  50.7710000  70.1400000
  69.9950000  51.6490000  70.2800000  68.8230000  50.9160000  69.6630000
  74.2330000  31.0000000  95.3240000  74.2740000  31.2990000  96.2330000
  74.9020000  31.5150000  94.8720000  77.7380000  72.8570000  60.9370000
  78.3760000  73.4950000  60.6190000  78.2580000  72.2230000  61.4320000
  68.7470000  47.3570000  56.0040000  69.1070000  46.4700000  56.0000000
  67.7980000  47.2320000  56.0190000  52.1550000  50.6590000  65.3570000
  53.0120000  51.0850000  65.3370000  52.3490000  49.7250000  65.2700000
  38.2220000  74.3300000  68.7020000  37.7160000  75.0870000  68.4070000
  38.4850000  74.5500000  69.5960000  69.8150000  83.0690000  71.9070000
  70.0160000  82.5350000  72.6750000  70.1250000  83.9460000  72.1360000
  42.5790000  57.2050000  80.7030000  43.3820000  56.7400000  80.4670000
  42.8220000  58.1310000  80.6770000  59.1910000  53.5890000  63.7440000
  58.8910000  52.8700000  63.1880000  60.0110000  53.2720000  64.1240000
  82.1270000  72.7170000  81.6940000  83.0390000  72.5620000  81.9360000
  81.6920000  71.8780000  81.8480000  77.5700000  50.8170000  58.6770000
  76.6220000  50.7800000  58.5570000  77.7690000  51.7520000  58.7310000
  47.1650000  37.2380000  91.3280000  46.5270000  36.8160000  91.9040000
  47.5840000  36.5130000  90.8630000  47.1800000  88.8540000  60.3380000
  48.1180000  88.7530000  60.1780000  46.8030000  89.0000000  59.4700000
  45.8600000  76.5790000  75.2350000  45.3600000  76.9340000  75.9700000
  46.5180000  77.2490000  75.0460000  88.8580000  51.1530000  68.6140000
  89.0000000  51.1800000  67.6680000  87.9710000  50.8060000  68.7140000
  39.1880000  85.8520000  75.8090000  40.0400000  86.2810000  75.8870000
  38.5570000  86.5720000  75.7970000  63.6460000  67.2510000  91.7030000
  64.0170000  68.1330000  91.7340000  64.3950000  66.6710000  91.8440000
  83.8090000  34.6420000  63.5810000  84.2260000  34.0750000  62.9320000
  84.2530000  34.4310000  64.4030000  83.5650000  51.1630000  59.7810000
  82.8160000  51.5690000  59.3430000  84.2950000  51.7560000  59.6060000
  85.6610000  43.2650000  58.5820000  85.4350000  44.1920000  58.5070000
  85.7050000  43.1040000  59.5250000  64.9990000  62.4380000  78.0940000
  64.5780000  61.5790000  78.0640000  64.3900000  63.0200000  77.6400000
  63.4000000  31.1240000  56.0020000  63.2820000  32.0730000  56.0000000
  64.3500000  31.0000000  56.0020000  41.6670000  39.7260000  70.3600000
  41.7820000  40.5010000  70.9090000  40.9230000  39.2650000  70.7480000
  44.2380000  46.6040000  72.3970000  44.7200000  47.4180000  72.2480000
  44.0310000  46.6150000  73.3320000  80.2260000  84.2170000  58.3140000
  79.4180000  83.8500000  58.6720000  80.8980000  83.5700000  58.5270000
  70.9100000  49.8290000  56.0000000  70.0690000  50.2490000  56.1770000
  71.4670000  50.0880000  56.7350000  85.6110000  63.2780000  63.1790000
  86.2100000  63.8370000  63.6730000  84.8730000  63.8490000  62.9620000
  78.2310000  48.1700000  89.0970000  78.6220000  48.0790000  88.2280000
  77.4490000  47.6180000  89.0670000  60.4990000  72.7940000  61.2310000
  60.0710000  72.7550000  62.0860000  59.9470000  72.2580000  60.6610000
  81.0670000  78.8250000  65.2480000  81.2360000  78.3090000  66.0360000
  81.9350000  78.9870000  64.8770000  58.7380000  73.4250000  56.0000000
  58.2980000  72.5760000  56.0490000  58.6970000  73.7690000  56.8930000
  54.9110000  53.0720000  65.5220000  55.6210000  52.7770000  64.9530000
  54.9340000  52.4710000  66.2670000  88.9990000  36.9140000  77.2130000
  89.0000000  37.4830000  76.4430000  88.1910000  36.4060000  77.1340000
  64.4120000  50.0220000  80.8900000  63.6420000  49.8070000  81.4170000
  64.5600000  49.2450000  80.3510000  74.9890000  56.8710000  92.5750000
  75.3040000  57.4400000  93.2780000  74.0370000  56.9680000  92.5970000
  59.5970000  67.1070000  77.7560000  58.7880000  67.0310000  78.2620000
  60.0290000  66.2600000  77.8670000  38.6150000  31.4120000  65.4090000
  38.0210000  31.0000000  66.0360000  38.0360000  31.8360000  64.7740000
  72.4220000  75.1450000  59.1800000  72.9520000  74.4990000  58.7130000
  71.6220000  75.2210000  58.6600000  66.0290000  65.3040000  62.2320000
  65.7480000  64.4530000  62.5680000  65.3900000  65.9230000  62.5840000
  47.9210000  71.3160000  66.4260000  47.8350000  71.4170000  67.3740000
  47.9700000  70.3700000  66.2890000  86.2830000  55.3110000  70.0840000
  86.5260000  55.9200000  70.7820000  85.3300000  55.2470000  70.1440000
  52.0870000  32.8290000  85.1670000  52.7100000  32.1030000  85.1240000
  52.0550000  33.0620000  86.0950000  52.9310000  50.5120000  92.8730000
  53.8770000  50.3650000  92.8500000  52.6020000  49.8540000  93.4860000
  73.7290000  53.0160000  93.9510000  73.3180000  52.3890000  94.5460000
  74.6240000  53.1070000  94.2790000  35.4710000  42.6520000  56.0000000
  36.3510000  43.0290000  56.0000000  35.6150000  41.7060000  56.0000000
  88.9380000  73.8750000  59.3970000  89.0000000  73.3330000  60.1830000
  88.9470000  73.2490000  58.6730000  60.9010000  54.7570000  61.1530000
  61.2630000  54.3760000  60.3540000  60.5490000  54.0100000  61.6380000
  70.1750000  40.2260000  92.8620000  70.5530000  39.5610000  93.4380000
  70.9260000  40.5920000  92.3930000  78.4610000  88.5570000  59.5920000
  78.1280000  89.0000000  58.8120000  79.2880000  89.0000000  59.7850000
  51.6940000  47.2630000  65.1300000  51.8140000  47.4050000  64.1920000
  50.7660000  47.0460000  65.2230000  64.1220000  41.7760000  94.0130000
  63.9640000  42.6890000  94.2500000  63.2860000  41.4720000  93.6570000
  80.5300000  55.4910000  69.7290000  79.9960000  54.9180000  69.1790000
  80.0590000  56.3250000  69.7350000  43.1650000  83.4540000  59.3270000
  42.2400000  83.5930000  59.5280000  43.2660000  82.5020000  59.3070000
  65.8400000  39.0740000  63.6250000  66.6140000  38.6400000  63.9830000
  65.8940000  39.9710000  63.9540000  89.0000000  49.9030000  75.9090000
  88.7920000  49.0150000  75.6200000  88.1550000  50.2780000  76.1590000
  75.9140000  77.0850000  89.6950000  76.6660000  76.5040000  89.5830000
  75.4940000  77.1030000  88.8350000  52.2040000  58.6790000  87.4830000
  52.6330000  58.6110000  88.3350000  52.5460000  57.9390000  86.9810000
  62.3300000  50.0720000  72.4210000  63.0920000  50.1240000  71.8450000
  61.6470000  49.6750000  71.8790000  36.0560000  55.9230000  65.8950000
  36.4460000  56.7760000  65.7050000  35.7660000  55.5970000  65.0420000
  46.7890000  74.7780000  61.4830000  47.3420000  74.7190000  62.2620000
  47.2760000  74.3060000  60.8070000  60.7820000  67.9260000  86.5760000
  60.3040000  68.1730000  87.3680000  60.8580000  68.7400000  86.0770000
  69.9980000  40.8080000  67.4530000  69.1090000  41.0980000  67.6560000
  69.9610000  39.8540000  67.5260000  72.2170000  78.2700000  72.0930000
  71.2620000  78.2280000  72.0510000  72.5030000  77.3670000  71.9500000
  84.1010000  34.6080000  56.0340000  84.4840000  33.7310000  56.0000000
  84.8550000  35.1980000  56.0440000  31.6880000  77.6630000  59.7300000
  31.0000000  77.4800000  59.0910000  31.3600000  78.4110000  60.2290000
  80.1560000  38.5580000  81.1540000  80.5160000  37.7930000  80.7070000
  79.2350000  38.5780000  80.8910000  69.1530000  48.7130000  86.1940000
  69.2210000  49.6670000  86.1580000  69.9850000  48.4280000  86.5740000
  45.6950000  50.1910000  61.7880000  45.0040000  50.6460000  61.3060000
  45.3960000  49.2830000  61.8350000  35.0840000  31.0000000  64.5200000
  35.7320000  31.0140000  63.8160000  35.6030000  31.0240000  65.3250000
  35.2830000  84.2970000  86.4920000  34.4040000  84.6760000  86.4900000
  35.4740000  84.1310000  85.5680000  59.3860000  84.3050000  88.6550000
  60.0220000  83.6210000  88.8660000  58.5870000  84.0380000  89.1110000
  80.0700000  53.9740000  58.8550000  80.6730000  53.2800000  58.5900000
  79.2430000  53.7490000  58.4280000  49.3250000  71.5820000  86.7480000
  49.9490000  71.5360000  87.4710000  48.7020000  72.2590000  87.0100000
  43.9310000  31.9260000  85.1090000  44.1040000  31.0000000  85.2760000
  44.7530000  32.2620000  84.7490000  51.7970000  49.0390000  76.6730000
  50.9940000  48.7250000  76.2590000  52.1570000  48.2690000  77.1150000
  82.9160000  50.8720000  91.9490000  82.7850000  50.9690000  91.0060000
  83.2920000  51.7080000  92.2260000  63.3580000  81.7170000  61.8740000
  62.6750000  82.0200000  62.4720000  63.1160000  80.8130000  61.6710000
  66.3640000  39.3530000  83.0120000  65.5640000  39.3660000  82.4880000
  66.3290000  38.5190000  83.4820000  50.1210000  52.6480000  95.8200000
  49.8420000  52.0350000  96.5000000  50.9100000  52.2510000  95.4480000
  49.5860000  50.3480000  66.6720000  50.2480000  49.6970000  66.9040000
  49.2120000  50.0280000  65.8500000  83.1680000  75.8890000  91.0230000
  82.2180000  76.0020000  90.9900000  83.4930000  76.6970000  91.4210000
  58.6450000  60.9390000  68.7890000  58.2900000  60.8820000  69.6760000
  59.1140000  61.7740000  68.7720000  55.9940000  73.8760000  65.5210000
  55.1010000  74.2190000  65.5210000  56.5360000  74.6190000  65.2540000
  65.1370000  42.7340000  68.4410000  65.2420000  43.6420000  68.1580000
  64.4360000  42.3900000  67.8860000  73.3160000  57.9570000  61.0050000
  72.9450000  57.3130000  60.4020000  72.5650000  58.4750000  61.2960000
  75.8020000  83.3540000  78.0630000  75.8450000  83.8910000  77.2720000
  75.0710000  83.7190000  78.5610000  43.2330000  44.8680000  61.6770000
  42.3060000  44.6650000  61.8000000  43.5480000  44.1960000  61.0730000
  63.4150000  35.4810000  90.8640000  63.6660000  36.1600000  90.2370000
  63.7280000  34.6650000  90.4710000  57.6050000  84.6790000  73.5520000
  56.9570000  84.0730000  73.1930000  58.4280000  84.1890000  73.5310000
  56.3530000  60.7680000  81.9380000  57.2750000  60.6460000  81.7130000
  56.2400000  60.2880000  82.7580000  78.0550000  63.6520000  86.6630000
  78.7260000  63.6830000  85.9810000  77.2400000  63.4840000  86.1910000
  37.9630000  83.6130000  90.8900000  38.0410000  82.6610000  90.9480000
  37.5020000  83.8660000  91.6900000  43.8810000  49.1370000  87.1950000
  44.1930000  48.3800000  87.6920000  43.5270000  49.7300000  87.8590000
  59.0680000  44.5790000  64.3690000  59.8260000  45.1160000  64.6010000
  58.9870000  43.9530000  65.0890000  36.3210000  88.9200000  59.2710000
  37.2700000  88.8270000  59.3610000  36.1760000  89.0000000  58.3280000
  75.5090000  51.6760000  69.0420000  74.5740000  51.4840000  68.9640000
  75.9420000  50.8470000  68.8380000  43.8090000  57.5480000  56.0070000
  44.0820000  56.6300000  56.0000000  44.6280000  58.0410000  56.0650000
  70.0070000  57.8850000  78.2790000  69.6740000  58.7620000  78.4670000
  70.8020000  58.0350000  77.7660000  60.2830000  48.9720000  69.1660000
  60.9120000  49.6780000  69.3160000  60.4540000  48.3450000  69.8700000
  73.4950000  53.1150000  63.8090000  73.0580000  53.2600000  64.6480000
  74.2880000  53.6510000  63.8560000  74.2930000  65.8090000  60.8280000
  74.6370000  65.3310000  60.0750000  74.4930000  65.2500000  61.5790000
  79.9430000  68.4210000  58.4900000  80.5590000  68.7690000  59.1350000
  80.2990000  67.5630000  58.2560000  54.5080000  43.3660000  62.3320000
  55.3360000  43.0950000  61.9360000  54.5020000  42.9420000  63.1910000
  52.2020000  72.1370000  60.9780000  51.9980000  71.7200000  61.8150000
  53.1370000  71.9740000  60.8510000  55.0370000  40.1020000  58.6770000
  54.1300000  39.9720000  58.3990000  55.2460000  40.9960000  58.4030000
  83.4690000  56.7230000  81.6790000  83.9440000  56.2550000  82.3660000
  83.8790000  57.5890000  81.6520000  33.2800000  88.9340000  69.0990000
  33.1040000  87.9930000  69.0820000  34.2100000  89.0000000  69.3160000
  72.4530000  75.3770000  76.3280000  72.2190000  75.8470000  77.1280000
  73.4110000  75.3570000  76.3330000  37.9300000  75.4590000  58.3070000
  37.5140000  74.6470000  58.0160000  38.8180000  75.1990000  58.5540000
  67.5180000  84.8410000  70.7640000  68.1180000  84.4160000  70.1510000
  66.9020000  84.1510000  71.0130000  40.0790000  45.9320000  60.7660000
  40.6640000  46.6780000  60.8960000  39.4990000  45.9470000  61.5290000
  61.9150000  88.4140000  96.5000000  62.6710000  89.0000000  96.5000000
  61.1570000  89.0000000  96.5000000  43.8480000  58.3180000  69.0010000
  44.3120000  58.2440000  68.1670000  44.4120000  57.8680000  69.6300000
  48.1330000  76.6750000  70.3960000  47.4820000  77.3730000  70.4610000
  47.6200000  75.8790000  70.2550000  86.5640000  43.3630000  72.4170000
  86.9750000  43.4130000  73.2800000  86.3630000  42.4340000  72.3000000
  55.4920000  43.6820000  58.9310000  55.7150000  44.3700000  58.3040000
  54.6350000  43.9390000  59.2740000  38.7030000  39.5830000  79.4600000
  38.6450000  40.5150000  79.2530000  37.9530000  39.4170000  80.0310000
  48.8840000  56.0320000  70.0040000  48.3600000  56.7990000  70.2330000
  49.7860000  56.2930000  70.1940000  34.2450000  67.6430000  87.0910000
  34.6230000  68.5000000  86.8940000  34.4280000  67.5080000  88.0210000
  49.7920000  86.3750000  80.4580000  49.3930000  86.6220000  81.2930000
  49.1130000  86.5510000  79.8070000  45.2200000  66.3320000  73.6750000
  44.8490000  66.8730000  72.9780000  44.4940000  66.1940000  74.2840000
  34.2390000  38.7980000  63.7180000  33.9980000  38.6360000  62.8070000
  34.4540000  39.7310000  63.7480000  88.6030000  57.8270000  56.7600000
  88.3320000  58.3410000  56.0000000  87.7840000  57.6140000  57.2100000
  88.3750000  77.3120000  73.5670000  87.8070000  77.7970000  74.1650000
  88.9340000  77.9810000  73.1710000  76.0550000  74.0800000  77.9800000
  76.2400000  73.2180000  78.3510000  75.2190000  73.9720000  77.5260000
  43.8890000  54.4030000  93.9310000  44.6530000  53.8270000  93.9240000
  43.1470000  53.8180000  93.7740000  81.2590000  35.1690000  64.1190000
  81.0680000  34.3970000  63.5860000  80.4800000  35.7190000  64.0330000
  57.6870000  69.1970000  80.2600000  58.4410000  69.4240000  79.7160000
  57.7440000  68.2470000  80.3630000  45.9750000  38.5750000  66.0670000
  45.6970000  39.2570000  66.6780000  46.0510000  39.0230000  65.2240000
  57.4820000  31.7130000  80.4440000  57.8190000  31.0070000  79.8930000
  58.1390000  32.4070000  80.3740000  35.9870000  37.4940000  80.4540000
  36.8860000  37.2460000  80.6650000  35.5690000  36.6750000  80.1870000
  81.6670000  35.4140000  68.8460000  81.4210000  35.1700000  69.7380000
  81.6100000  34.5960000  68.3500000  42.1800000  31.0420000  65.5550000
  41.3640000  31.0000000  65.0560000  42.8690000  31.0040000  64.8910000
  31.4870000  45.3110000  66.5340000  31.0340000  45.6430000  67.3090000
  31.0000000  45.6780000  65.7960000  64.3040000  88.0940000  74.4560000
  64.8850000  87.5110000  73.9670000  64.5790000  88.9750000  74.2010000
  35.0640000  31.5940000  74.9530000  35.3650000  31.0520000  75.6820000
  35.0500000  31.0000000  74.2020000  60.7590000  71.3500000  56.0000000
  60.5200000  71.1970000  56.9140000  61.1960000  72.2020000  56.0050000
  65.5280000  62.1150000  95.6250000  65.4310000  61.3300000  95.0870000
  65.7610000  61.7840000  96.4930000  34.0110000  61.7730000  93.6220000
  33.3180000  61.6720000  94.2740000  33.6310000  62.3440000  92.9540000
  38.8250000  33.0480000  93.0740000  38.9730000  33.3660000  92.1840000
  39.5590000  33.3990000  93.5800000  38.4930000  61.3550000  67.0200000
  38.4480000  60.6320000  67.6450000  38.9100000  60.9770000  66.2450000
  51.1380000  48.9080000  72.8290000  50.9790000  48.7070000  73.7500000
  51.6700000  49.7040000  72.8450000  65.8710000  77.0900000  95.7710000
  65.6120000  76.2350000  96.1140000  66.3270000  77.5120000  96.5000000
  39.3480000  55.9760000  61.2480000  39.3290000  56.8650000  61.6010000
  40.2300000  55.8800000  60.8880000  39.4090000  43.2190000  62.8260000
  40.0600000  43.6200000  62.2500000  38.6170000  43.7410000  62.6920000
  38.2070000  83.4630000  88.3130000  37.3180000  83.1100000  88.3260000
  38.7730000  82.6920000  88.3550000  58.1160000  40.3660000  79.7690000
  58.8850000  39.8860000  80.0760000  57.6040000  40.5300000  80.5600000
  81.3090000  37.4180000  66.3010000  81.8170000  37.5950000  67.0930000
  80.9200000  38.2620000  66.0710000  47.8340000  89.0000000  79.2990000
  47.3500000  88.3230000  79.7710000  48.1580000  88.5590000  78.5130000
  53.2180000  74.3370000  56.9180000  53.4850000  74.3840000  56.0000000
  53.8720000  73.7720000  57.3300000  68.1740000  50.5160000  76.1250000
  67.2750000  50.4920000  75.7990000  68.3570000  51.4460000  76.2570000
  61.0040000  47.2880000  80.6720000  60.6680000  46.5030000  81.1040000
  61.9550000  47.1720000  80.6680000  42.1280000  89.0000000  71.2590000
  42.0450000  88.1260000  71.6400000  42.9390000  88.9650000  70.7510000
  80.5190000  42.7870000  78.5380000  81.4390000  42.7250000  78.7960000
  80.1800000  41.8970000  78.6430000  50.8360000  32.0390000  61.8140000
  50.9380000  32.9430000  61.5180000  51.2520000  31.5140000  61.1290000
  49.4980000  77.1510000  62.9680000  48.7120000  77.6740000  62.8170000
  49.2580000  76.2680000  62.6870000  53.0580000  50.2300000  89.5370000
  53.5030000  50.1960000  90.3840000  52.6990000  49.3500000  89.4190000
  31.0000000  71.6520000  78.0720000  31.8420000  71.2810000  77.8100000
  31.1960000  72.5650000  78.2850000  32.3930000  79.0490000  91.2580000
  32.0640000  79.8320000  90.8170000  31.7030000  78.3970000  91.1370000
  86.5040000  66.7740000  95.8470000  86.3100000  66.3550000  95.0090000
  86.3310000  66.0950000  96.5000000  82.9960000  33.5260000  57.9990000
  82.2460000  33.9860000  58.3740000  83.7580000  33.9240000  58.4220000
  31.8660000  47.0480000  63.8280000  32.4780000  47.7720000  63.6990000
  31.0000000  47.4530000  63.7670000  33.5890000  72.2630000  56.0190000
  34.5230000  72.0560000  56.0000000  33.1550000  71.4100000  56.0440000
  64.3400000  80.1030000  84.7270000  63.6100000  80.6730000  84.9710000
  64.9410000  80.6750000  84.2490000  64.0630000  41.5220000  65.5710000
  64.9730000  41.8050000  65.4810000  64.1100000  40.5670000  65.6070000
  75.5940000  34.1780000  76.0390000  74.7950000  34.0910000  75.5190000
  76.3010000  33.9680000  75.4290000  80.6720000  50.0610000  89.5590000
  80.6170000  49.1050000  89.5700000  79.7610000  50.3540000  89.6030000
  80.4570000  50.0940000  60.1220000  79.7250000  49.8950000  60.7050000
  80.2340000  50.9410000  59.7360000  45.7550000  62.9730000  61.6490000
  45.1550000  63.4170000  61.0500000  45.3430000  62.1250000  61.8160000
  86.4140000  48.4810000  76.1790000  85.6580000  49.0330000  76.3800000
  86.8380000  48.3380000  77.0260000  55.6060000  55.9610000  85.7820000
  56.2280000  55.9250000  85.0550000  55.5760000  55.0640000  86.1160000
  55.8860000  57.6070000  77.6320000  56.8020000  57.5800000  77.9090000
  55.8160000  56.9190000  76.9690000  37.9460000  53.5960000  76.0540000
  38.3380000  54.4680000  76.0110000  37.0960000  53.6940000  75.6240000
  37.4810000  36.7320000  77.7600000  37.6090000  35.8150000  77.5170000
  38.3660000  37.0970000  77.7910000  70.3890000  60.5950000  64.6420000
  70.8670000  60.6650000  65.4680000  69.6900000  61.2460000  64.7130000
  74.7970000  61.5750000  69.3800000  75.4760000  62.2140000  69.1670000
  74.2920000  61.4820000  68.5720000  36.8640000  72.4490000  83.2170000
  36.1590000  72.9940000  83.5660000  37.5370000  73.0730000  82.9450000
  58.0100000  67.2050000  96.4970000  57.6110000  66.3350000  96.5000000
  57.2670000  67.8100000  96.4950000  63.2970000  62.8760000  96.4590000
  63.6470000  63.7660000  96.5000000  62.3470000  62.9910000  96.4620000
  45.5740000  37.3610000  81.5350000  45.3780000  36.5570000  81.0550000
  46.5070000  37.5120000  81.3810000  65.5960000  54.0510000  85.8510000
  65.3900000  54.9440000  86.1270000  66.4630000  54.1180000  85.4510000
  32.2580000  57.2610000  82.3210000  32.9760000  56.6340000  82.2330000
  31.9210000  57.1160000  83.2060000  76.6760000  74.0670000  88.6790000
  75.8330000  74.4460000  88.4330000  76.9280000  73.5340000  87.9240000
  83.4350000  56.4820000  56.0040000  82.6200000  56.9830000  56.0190000
  83.2850000  55.7620000  56.6180000  43.1690000  33.7000000  66.2190000
  42.5420000  33.5770000  65.5070000  44.0220000  33.5240000  65.8220000
  58.2210000  60.7770000  73.7440000  58.0770000  61.6160000  73.3070000
  58.1050000  60.9690000  74.6750000  59.9640000  41.7920000  88.3220000
  60.3380000  41.3500000  89.0840000  59.0690000  42.0070000  88.5840000
  37.8190000  64.7410000  59.6210000  38.1650000  63.9160000  59.2820000
  38.5670000  65.3380000  59.6100000  54.2320000  54.5090000  61.3150000
  53.9050000  54.4110000  62.2090000  54.7240000  53.7040000  61.1490000
  69.6100000  63.7210000  91.3730000  69.3290000  62.8370000  91.1380000
  70.3740000  63.8850000  90.8200000  47.0900000  46.2780000  93.0560000
  47.6380000  46.4470000  93.8220000  47.4860000  45.5090000  92.6440000
  43.9480000  72.4050000  83.8010000  43.3250000  71.7010000  83.9760000
  43.4050000  73.1870000  83.7020000  52.3770000  40.6440000  89.7610000
  52.5100000  40.0630000  89.0120000  51.8110000  40.1470000  90.3530000
  48.8170000  88.6990000  84.1130000  48.8200000  89.0000000  85.0220000
  47.9350000  88.8970000  83.7980000  49.7510000  63.6970000  66.0360000
  48.8640000  63.8280000  65.7030000  50.2700000  63.4860000  65.2590000
  31.0000000  72.9300000  95.8390000  31.0550000  73.6320000  96.4870000
  31.9000000  72.8150000  95.5320000  81.1660000  46.7210000  69.4770000
  81.8710000  46.2610000  69.0210000  81.3590000  46.5950000  70.4060000
  38.1730000  38.7340000  72.1120000  38.0770000  38.6850000  73.0630000
  38.9710000  38.2380000  71.9260000  33.4620000  44.1480000  70.3200000
  34.0050000  43.8900000  69.5760000  33.4510000  43.3780000  70.8880000
  45.5800000  38.0510000  89.5730000  45.0020000  38.0290000  90.3360000
  45.0860000  38.5380000  88.9130000  62.2170000  64.3490000  79.1570000
  61.2700000  64.4420000  79.0520000  62.3240000  63.5530000  79.6770000
  73.9380000  34.0310000  66.7870000  73.9330000  34.7430000  67.4270000
  73.9860000  34.4720000  65.9380000  67.1180000  34.6640000  59.3310000
  67.5740000  35.0390000  58.5780000  66.1930000  34.8510000  59.1690000
  75.8080000  79.0370000  87.2410000  74.8780000  78.8330000  87.1380000
  76.2080000  78.7510000  86.4190000  34.5510000  51.1750000  70.4030000
  34.7120000  50.2620000  70.1640000  33.7690000  51.4180000  69.9060000
  47.7200000  52.2970000  95.2040000  46.8550000  52.6540000  95.0060000
  47.5890000  51.3490000  95.2260000  64.0840000  52.4850000  70.0190000
  63.2610000  52.1530000  70.3790000  63.8250000  52.9580000  69.2280000
  41.7740000  69.7820000  60.2630000  42.5100000  69.1940000  60.0920000
  42.1800000  70.5850000  60.5910000  41.2350000  52.5470000  89.2240000
  40.3000000  52.4010000  89.3660000  41.6440000  51.7060000  89.4310000
  85.7200000  36.2510000  72.3670000  86.4880000  36.1140000  72.9200000
  85.6630000  37.2010000  72.2640000  62.7600000  55.2120000  84.5840000
  62.8960000  54.8190000  85.4460000  63.5650000  55.0210000  84.1030000
  57.6650000  47.5970000  70.1050000  56.8280000  47.9180000  70.4390000
  58.0190000  47.0640000  70.8170000  38.7650000  61.1750000  75.6450000
  38.6300000  61.4670000  74.7440000  38.8450000  60.2230000  75.5790000
  54.4890000  33.9510000  73.6270000  54.3660000  34.8940000  73.7350000
  55.4380000  33.8270000  73.6700000  81.7810000  75.0680000  61.2380000
  80.9530000  74.6820000  61.5250000  81.5580000  75.5520000  60.4430000
  34.8520000  71.0630000  61.5760000  34.2140000  70.8370000  62.2530000
  34.4650000  70.7330000  60.7640000  37.1920000  79.7580000  69.6630000
  36.3980000  80.0010000  69.1870000  37.8980000  79.8750000  69.0270000
  67.1180000  78.3650000  60.3300000  66.6030000  77.6500000  59.9560000
  66.4660000  78.9900000  60.6490000  68.5770000  61.8250000  82.7510000
  68.8810000  61.0790000  82.2340000  68.9660000  62.5880000  82.3240000
  38.6300000  69.2560000  56.0120000  38.5390000  68.5410000  56.6410000
  37.7700000  69.6770000  56.0000000  51.2670000  70.4730000  85.6280000
  51.9930000  71.0950000  85.6670000  51.4710000  69.8230000  86.3010000
  60.8110000  74.1910000  92.3820000  60.9560000  74.2780000  93.3240000
  60.0850000  73.5700000  92.3080000  61.3780000  76.2250000  95.7870000
  60.6710000  76.6660000  96.2590000  61.9510000  75.8870000  96.4750000
  31.0000000  50.0010000  94.3030000  31.0000000  49.4760000  93.5030000
  31.8940000  50.3370000  94.3690000  35.8000000  44.2580000  96.5000000
  35.6440000  43.3130000  96.5000000  36.7530000  44.3440000  96.4990000
  61.0540000  54.0510000  74.7380000  60.7230000  54.9490000  74.7450000
  60.2670000  53.5050000  74.7340000  31.5640000  57.9310000  79.6850000
  31.0000000  58.6810000  79.4950000  31.0000000  57.3220000  80.1610000
  65.9390000  60.1130000  56.0720000  66.0260000  61.0660000  56.0860000
  64.9960000  59.9570000  56.1200000  55.0100000  46.6570000  82.1210000
  55.8550000  46.4090000  82.4950000  54.3670000  46.1760000  82.6420000
  51.5970000  72.6020000  58.3880000  50.8210000  72.0450000  58.3380000
  52.3270000  71.9900000  58.4850000  73.2360000  88.1560000  85.9910000
  72.5380000  87.5090000  86.0930000  72.8000000  89.0000000  86.1090000
  31.5270000  51.5740000  85.3980000  31.0000000  51.5980000  86.1970000
  31.0000000  52.0410000  84.7500000  78.7590000  31.2460000  82.7330000
  79.3120000  31.8370000  82.2220000  79.3010000  31.0000000  83.4830000
  52.5930000  84.3960000  91.2680000  52.2800000  84.5160000  90.3720000
  53.5450000  84.3390000  91.1840000  44.7210000  69.1910000  86.6400000
  44.7590000  68.6160000  87.4040000  43.8720000  69.0030000  86.2400000
  88.9590000  67.2520000  92.8210000  89.0000000  67.6680000  91.9600000
  88.0330000  67.0380000  92.9400000  81.5040000  45.1630000  85.3840000
  81.5340000  44.9370000  84.4540000  82.3710000  45.5230000  85.5710000
  74.4490000  67.8310000  58.6480000  73.6640000  67.3310000  58.4250000
  74.1640000  68.4300000  59.3380000  51.2000000  81.6300000  82.5330000
  50.8500000  81.9080000  83.3790000  51.5030000  80.7330000  82.6810000
  35.5950000  61.0420000  96.3370000  34.6720000  61.2630000  96.4610000
  35.6070000  60.0860000  96.2750000  46.5280000  57.5930000  73.9130000
  47.0640000  57.0830000  74.5200000  45.6260000  57.4120000  74.1780000
  49.3340000  71.4670000  93.3310000  48.6840000  72.1690000  93.3610000
  49.7090000  71.4490000  94.2120000  74.9780000  71.0110000  84.3060000
  75.0930000  71.9210000  84.5800000  75.8490000  70.7370000  84.0160000
  82.0510000  55.8160000  65.8970000  82.7940000  55.7730000  65.2960000
  81.5910000  56.6200000  65.6520000  70.4510000  31.7580000  70.9040000
  69.5880000  32.1530000  70.7850000  70.2920000  31.0000000  71.4670000
  35.1650000  39.8580000  82.2720000  36.0260000  39.8160000  81.8570000
  35.1030000  40.7530000  82.6070000  86.7580000  73.3040000  64.5180000
  87.1290000  73.1970000  65.3940000  87.1240000  72.5780000  64.0120000
  85.6000000  43.5160000  82.2130000  86.5180000  43.2590000  82.1240000
  85.6220000  44.4720000  82.2610000  52.3260000  61.0530000  90.4830000
  53.2610000  60.8520000  90.5250000  51.9370000  60.2940000  90.0490000
  31.8250000  89.0000000  90.7640000  31.0000000  88.5500000  90.5850000
  31.9020000  88.9900000  91.7180000  34.4980000  77.3250000  85.6880000
  34.3250000  78.0310000  86.3100000  35.0540000  77.7260000  85.0190000
  77.7810000  50.2280000  79.4100000  78.1950000  50.9650000  79.8580000
  77.5950000  49.5980000  80.1070000  82.6240000  44.5830000  94.5100000
  81.9570000  43.9420000  94.7560000  83.4050000  44.0600000  94.3280000
  37.2240000  52.3300000  68.7540000  37.8500000  52.3530000  69.4770000
  36.3670000  52.3910000  69.1770000  79.9560000  64.7560000  59.2570000
  79.1510000  65.1990000  58.9870000  80.6310000  65.1170000  58.6820000
  63.0150000  33.1060000  74.0330000  63.0810000  34.0460000  74.2040000
  62.1190000  32.8790000  74.2840000  33.5530000  50.4920000  57.8900000
  34.4960000  50.4820000  58.0570000  33.4270000  49.8520000  57.1890000
  72.3260000  45.3230000  83.4820000  71.5570000  45.8680000  83.3160000
  72.9190000  45.8900000  83.9770000  68.2950000  38.1220000  92.5450000
  67.4650000  37.9880000  92.0870000  68.9290000  38.2950000  91.8480000
  85.5060000  85.7060000  70.7380000  85.2280000  86.2910000  71.4430000
  86.4180000  85.9460000  70.5730000  58.7940000  84.7340000  83.1010000
  58.5520000  85.0660000  83.9650000  59.6990000  84.4390000  83.2010000
  70.5940000  75.7220000  87.9710000  69.7450000  75.9120000  88.3680000
  70.7850000  76.4910000  87.4320000  76.8120000  73.3440000  93.8230000
  75.9090000  73.6610000  93.8370000  77.3450000  74.1370000  93.8850000
  31.0000000  66.1990000  96.2430000  31.1410000  67.1110000  96.4960000
  31.8720000  65.8040000  96.2710000  88.1250000  50.7360000  92.9110000
  89.0000000  50.6920000  93.2970000  87.5420000  50.8840000  93.6550000
  45.9880000  86.5110000  77.1950000  45.1510000  86.4280000  77.6510000
  46.6390000  86.5620000  77.8950000  49.8140000  76.4060000  60.2530000
  49.3000000  75.6380000  60.0070000  50.6730000  76.0540000  60.4880000
  47.4150000  45.1810000  78.8120000  47.3590000  45.0550000  79.7590000
  47.0830000  44.3630000  78.4410000  80.4660000  74.0180000  93.8580000
  81.1600000  74.5450000  94.2540000  79.8150000  74.6570000  93.5680000
  69.3520000  31.2440000  66.3090000  69.5070000  31.0010000  65.3960000
  70.1580000  31.0000000  66.7630000  87.4450000  32.7100000  96.4990000
  86.9670000  33.5390000  96.5000000  88.3680000  32.9660000  96.5000000
  44.6300000  81.9930000  86.4400000  44.1710000  81.3130000  86.9320000
  44.6360000  82.7510000  87.0260000  31.1460000  77.1550000  72.7020000
  31.0000000  76.7950000  71.8270000  31.0000000  78.0960000  72.6020000
  86.4260000  69.0910000  56.0380000  85.4740000  69.1820000  56.0000000
  86.6020000  68.7760000  56.9250000  54.7180000  41.3800000  79.1990000
  55.2310000  40.5910000  79.3710000  55.3410000  42.0990000  79.3100000
  49.3500000  57.1740000  56.1410000  49.0670000  57.4670000  57.0070000
  50.1880000  57.6160000  56.0000000  67.6440000  83.2100000  66.4570000
  67.1830000  83.3840000  67.2770000  67.5470000  84.0180000  65.9510000
  31.0000000  80.2730000  56.4700000  31.8330000  80.3050000  56.0000000
  31.0240000  79.4420000  56.9450000  49.0140000  71.6700000  90.2380000
  48.3980000  71.5210000  90.9540000  48.7370000  72.5010000  89.8510000
  74.5920000  84.9040000  62.4310000  75.2700000  84.7900000  61.7660000
  73.7700000  84.8950000  61.9400000  74.3110000  55.3810000  61.5410000
  75.0220000  54.7460000  61.4660000  74.6120000  56.0010000  62.2070000
  43.3700000  86.4620000  84.0240000  43.7130000  86.4250000  84.9160000
  44.1190000  86.2420000  83.4690000  45.4520000  58.2450000  76.7120000
  46.0050000  58.8390000  76.2050000  45.9390000  57.4200000  76.7300000
  75.0670000  79.4970000  72.9050000  74.6930000  79.4240000  72.0270000
  75.9080000  79.9350000  72.7710000  63.9880000  45.4000000  61.1860000
  64.1070000  45.8010000  60.3250000  63.9610000  44.4590000  61.0110000
  42.4760000  40.0480000  79.8210000  43.1460000  40.2380000  80.4770000
  41.7070000  39.7920000  80.3310000  40.1880000  47.2490000  79.3980000
  39.2370000  47.1750000  79.4670000  40.3500000  48.1880000  79.3080000
  57.4360000  86.0770000  58.4170000  57.0900000  85.5660000  59.1480000
  57.9210000  86.7910000  58.8310000  83.9600000  53.0820000  62.3880000
  84.4100000  53.2970000  61.5710000  83.1930000  53.6550000  62.3970000
  53.2490000  87.1220000  63.9230000  52.3080000  87.2930000  63.9470000
  53.3180000  86.1700000  63.8470000  41.6900000  79.7250000  56.5430000
  42.1040000  80.3960000  56.0000000  40.9510000  79.4150000  56.0190000
  42.9680000  80.9490000  83.2170000  42.3940000  81.7140000  83.2500000
  43.8520000  81.3140000  83.1610000  31.6680000  57.9840000  89.7810000
  32.5100000  58.0520000  89.3300000  31.0160000  58.0400000  89.0820000
  72.4920000  49.8260000  71.8940000  72.2010000  50.7110000  71.6740000
  72.4980000  49.8070000  72.8520000  39.4510000  68.8350000  93.9590000
  39.5450000  69.3010000  94.7890000  40.2810000  68.3700000  93.8490000
  46.1980000  63.1640000  65.7580000  45.4400000  63.4470000  65.2470000
  46.1070000  63.6190000  66.5950000  39.8070000  40.5840000  68.9280000
  40.3700000  40.5580000  68.1540000  39.3190000  39.7610000  68.8960000
  81.8400000  49.8040000  71.7960000  81.7860000  50.2550000  70.9540000
  81.4790000  48.9340000  71.6260000  49.1310000  68.4800000  83.5160000
  49.8690000  68.0810000  83.0550000  49.4870000  68.7270000  84.3700000
  71.9500000  69.9910000  70.7930000  72.8040000  69.7670000  71.1620000
  71.4160000  69.2080000  70.9320000  59.1330000  44.1860000  69.5330000
  58.8380000  45.0730000  69.3310000  60.0710000  44.1940000  69.3390000
  49.1810000  36.7290000  87.0420000  49.3710000  37.5840000  86.6580000
  48.2270000  36.7040000  87.1140000  50.3660000  68.5330000  92.8640000
  50.1140000  67.6150000  92.7690000  49.6930000  69.0170000  92.3860000
  89.0000000  44.8400000  82.8400000  88.1740000  45.1630000  83.1990000
  88.9980000  43.9030000  83.0390000  78.4990000  86.4960000  88.3200000
  77.6360000  86.8770000  88.4830000  78.5190000  86.3410000  87.3760000
  61.4110000  67.2590000  93.5100000  62.1180000  66.6880000  93.8100000
  61.8520000  68.0650000  93.2420000  87.6950000  82.8040000  92.5320000
  87.1270000  83.0390000  93.2650000  87.0980000  82.4590000  91.8670000
  64.9350000  31.0000000  96.1200000  64.0590000  31.0580000  96.5000000
  64.8040000  31.1710000  95.1870000  83.6940000  82.9040000  93.2460000
  83.2270000  82.6490000  94.0410000  84.3090000  82.1880000  93.0880000
  76.3540000  68.6840000  79.4620000  75.6400000  68.0550000  79.3590000
  77.1090000  68.1510000  79.7110000  31.0000000  71.4840000  92.9650000
  31.0520000  72.4100000  93.2000000  31.5680000  71.3990000  92.1980000
  31.0240000  71.6550000  89.7720000  31.0000000  70.7580000  89.4410000
  31.9540000  71.8850000  89.7760000  54.7950000  57.8000000  65.6290000
  54.2650000  57.9770000  66.4060000  55.4860000  57.2130000  65.9380000
  41.6460000  53.9130000  72.7350000  42.3590000  53.2770000  72.6770000
  41.5350000  54.0650000  73.6740000  36.7040000  69.0820000  83.2700000
  37.6200000  68.8500000  83.1180000  36.7350000  69.9810000  83.5960000
  68.5800000  49.1910000  66.9080000  68.1660000  49.6170000  66.1580000
  69.0250000  49.9000000  67.3720000  46.6010000  48.2830000  77.0770000
  46.2060000  47.4120000  77.0410000  47.5400000  48.1250000  76.9780000
  75.3150000  68.4180000  76.7720000  75.5200000  67.4860000  76.8400000
  75.7330000  68.6970000  75.9570000  31.3410000  49.5990000  82.4020000
  31.0020000  50.1710000  83.0900000  31.6440000  48.8180000  82.8670000
  46.8500000  54.8410000  86.7690000  47.7040000  54.8300000  87.2000000
  47.0380000  54.6200000  85.8560000  71.0110000  31.0750000  95.0000000
  70.2360000  31.0260000  95.5590000  71.7490000  31.0000000  95.6050000
  48.1240000  41.7980000  78.8870000  48.5230000  41.0600000  79.3480000
  47.4220000  42.0930000  79.4670000  63.7120000  42.1100000  74.4130000
  64.1230000  41.2470000  74.4620000  64.4310000  42.7260000  74.5610000
  71.3790000  80.1550000  64.3990000  71.6300000  79.5840000  63.6740000
  72.2060000  80.3820000  64.8240000  81.5370000  87.8220000  96.5000000
  81.7520000  88.7550000  96.5000000  82.3870000  87.3800000  96.5000000
  45.3920000  60.6970000  79.5020000  45.2980000  59.8390000  79.9140000
  45.4390000  60.5100000  78.5650000  71.0710000  51.7430000  64.7020000
  71.6050000  51.2470000  64.0820000  70.9410000  51.1460000  65.4390000
  49.8640000  60.1510000  82.3350000  50.7980000  60.3000000  82.4830000
  49.4790000  60.1490000  83.2120000  76.6650000  86.2960000  64.3220000
  75.8470000  86.7920000  64.2990000  76.8580000  86.1950000  65.2540000
  61.1330000  84.0610000  60.7530000  60.3100000  83.8890000  61.2110000
  61.5080000  83.1940000  60.5990000  51.8980000  36.2190000  77.4400000
  51.8360000  36.9700000  78.0300000  51.5840000  35.4790000  77.9600000
  42.0930000  54.2340000  79.5690000  41.3330000  53.6570000  79.6520000
  42.2330000  54.3120000  78.6250000  50.7260000  60.7520000  63.7910000
  50.2410000  61.0910000  64.5420000  51.2640000  61.4890000  63.5000000
  87.2240000  46.5380000  74.8250000  87.2990000  45.5890000  74.7240000
  88.0450000  46.8820000  74.4710000  55.6030000  66.7710000  79.8560000
  55.0730000  67.0210000  79.1000000  56.2230000  66.1270000  79.5110000
  48.8630000  42.5600000  58.6100000  49.6810000  43.0450000  58.5010000
  48.9540000  42.1240000  59.4570000  40.3120000  35.9710000  72.2290000
  39.7940000  35.9090000  73.0310000  39.7500000  35.5940000  71.5510000
  48.9030000  64.9270000  61.7220000  48.1220000  65.3600000  61.3790000
  49.3060000  65.5790000  62.2970000  49.5540000  55.1790000  64.0360000
  49.3090000  55.0350000  64.9500000  50.4170000  55.5920000  64.0820000
  73.3560000  62.5870000  60.6720000  73.2360000  61.6670000  60.4380000
  74.2990000  62.7360000  60.5860000  35.9550000  44.1210000  61.9510000
  35.9410000  44.0400000  62.9040000  36.0280000  43.2210000  61.6340000
  86.8730000  58.5840000  66.6190000  86.5270000  59.3670000  67.0470000
  86.6300000  57.8640000  67.2020000  75.4650000  34.9860000  73.2830000
  76.0930000  35.5960000  72.8960000  74.6830000  35.5150000  73.4430000
  58.2130000  46.4850000  96.4620000  58.1570000  47.4120000  96.2290000
  59.1530000  46.3040000  96.5000000  58.0520000  52.1090000  75.1610000
  57.3380000  52.6980000  74.9170000  58.4390000  51.8420000  74.3260000
  41.4530000  61.4270000  73.9350000  42.0350000  62.1800000  73.8340000
  42.0420000  60.6770000  74.0140000  73.8120000  87.3800000  80.8300000
  73.6180000  87.4890000  79.9000000  73.1550000  87.9140000  81.2770000
  83.0720000  32.2270000  60.9770000  82.8210000  31.3040000  60.9660000
  82.3720000  32.6710000  60.4970000  74.6580000  83.2310000  84.1630000
  75.0400000  83.8250000  83.5170000  73.9820000  82.7540000  83.6810000
  40.8980000  73.1210000  84.1300000  40.5600000  72.8030000  83.2940000
  41.0050000  72.3320000  84.6620000  35.9470000  81.9230000  80.0280000
  35.0720000  82.2270000  79.7870000  35.7960000  81.0950000  80.4840000
  55.9880000  67.3600000  76.3130000  56.5300000  66.9510000  76.9870000
  55.3650000  66.6780000  76.0590000  75.7270000  55.6490000  56.7440000
  75.1160000  54.9400000  56.5420000  76.5930000  55.2640000  56.6120000
  73.5200000  34.4970000  59.3450000  73.6760000  35.2010000  59.9740000
  73.7560000  33.6970000  59.8150000  75.7030000  58.1690000  73.1090000
  75.7500000  58.9610000  73.6440000  74.7670000  58.0440000  72.9470000
  31.0000000  45.8970000  84.4200000  31.5360000  46.6080000  84.0700000
  31.6120000  45.3630000  84.9270000  49.0600000  58.5140000  59.9340000
  48.7620000  57.6670000  59.6040000  49.9190000  58.6400000  59.5300000
  84.9450000  41.0300000  65.6610000  85.1660000  41.9470000  65.4970000
  84.0700000  41.0590000  66.0490000  71.8500000  40.9930000  73.9810000
  71.8750000  41.9490000  73.9310000  72.5390000  40.7030000  73.3830000
  47.1350000  60.5930000  84.5880000  46.5670000  59.8930000  84.9090000
  46.6730000  61.4000000  84.8170000  53.0990000  55.4830000  90.8460000
  53.2190000  54.5930000  91.1760000  53.2470000  56.0440000  91.6070000
  47.3560000  84.8390000  87.3470000  46.6710000  84.1700000  87.3340000
  46.9010000  85.6530000  87.1290000  36.3210000  74.4630000  91.3480000
  35.6130000  74.9690000  90.9500000  36.0620000  74.3700000  92.2660000
  70.8590000  48.0520000  89.3820000  71.3930000  47.9860000  88.5910000
  70.0120000  48.3750000  89.0730000  66.9810000  74.5780000  89.3030000
  66.3310000  74.0280000  89.7400000  66.5010000  74.9910000  88.5840000
  88.2250000  88.5180000  68.5580000  88.6120000  88.9760000  69.3030000
  87.4180000  89.0000000  68.3730000  81.8650000  55.6550000  61.4750000
  81.5280000  54.9010000  60.9910000  82.5170000  56.0440000  60.8900000
  66.5830000  44.3350000  87.7390000  65.7770000  44.8500000  87.7390000
  66.2870000  43.4240000  87.7400000  31.2970000  64.1940000  93.7940000
  31.0000000  65.0780000  94.0080000  32.1740000  64.1370000  94.1730000
  82.1390000  78.8600000  56.2740000  81.3250000  78.3740000  56.1500000
  82.7390000  78.2270000  56.6700000  59.5200000  49.5980000  96.2050000
  60.2350000  50.2200000  96.0710000  59.0590000  49.5780000  95.3660000
  75.9210000  60.9050000  60.0620000  75.2770000  60.2080000  60.1900000
  75.8050000  61.1740000  59.1500000  59.8510000  56.9340000  59.1420000
  59.2080000  57.0710000  59.8370000  59.3500000  57.0210000  58.3310000
  77.4530000  57.0630000  69.8160000  77.7640000  57.2250000  70.7070000
  77.5680000  56.1210000  69.6900000  69.6250000  61.0770000  75.6730000
  69.7170000  60.2400000  75.2190000  69.5230000  61.7200000  74.9720000
  78.3220000  33.1270000  87.9700000  78.3020000  32.6410000  88.7950000
  79.2530000  33.2480000  87.7860000  73.4520000  34.5570000  94.2100000
  73.8340000  33.6790000  94.2210000  72.5070000  34.4080000  94.2330000
  44.4980000  54.0390000  65.2100000  44.9980000  54.7890000  64.8860000
  43.5860000  54.2560000  65.0130000  71.6710000  66.2860000  90.1920000
  71.5740000  66.2290000  91.1430000  70.7870000  66.4690000  89.8720000
  79.8490000  62.3610000  75.2810000  80.0000000  61.9630000  74.4240000
  79.4300000  63.1990000  75.0860000  39.9680000  51.2180000  68.2440000
  39.3530000  50.7060000  67.7200000  40.5900000  50.5730000  68.5820000
  39.0180000  31.3940000  61.7440000  38.6330000  31.0000000  60.9610000
  38.5380000  31.0000000  62.4720000  31.4500000  88.1840000  63.7700000
  31.8200000  89.0000000  63.4350000  31.0000000  88.4370000  64.5770000
  31.5860000  57.3280000  61.5960000  31.0000000  58.0850000  61.5900000
  31.0000000  56.5710000  61.5900000  49.7540000  41.1470000  88.2970000
  48.9730000  40.8130000  88.7380000  50.1580000  41.7340000  88.9370000
  68.8180000  84.2080000  60.7970000  69.6320000  84.4320000  60.3470000
  68.7880000  83.2510000  60.7780000  71.3910000  43.9140000  60.5360000
  70.5100000  43.6120000  60.7600000  71.4440000  44.7940000  60.9100000
  74.4690000  31.0000000  67.9810000  74.3570000  31.2560000  67.0650000
  73.5850000  31.0250000  68.3470000  50.0850000  65.4400000  77.5770000
  49.5920000  65.7210000  76.8060000  49.7340000  64.5740000  77.7840000
  69.2800000  32.9280000  93.8650000  69.6010000  32.2340000  93.2910000
  70.0670000  33.4070000  94.1270000  49.3590000  83.9700000  68.7850000
  48.4970000  83.8250000  69.1740000  49.9590000  83.4680000  69.3380000
  71.3970000  54.0580000  92.8370000  70.9480000  54.2620000  92.0170000
  71.4990000  53.1060000  92.8250000  77.5440000  78.6610000  77.6300000
  78.1240000  79.0410000  76.9700000  78.0620000  77.9630000  78.0310000
  31.6150000  85.6110000  96.4920000  31.0000000  86.3450000  96.4970000
  32.4790000  86.0230000  96.5000000  33.8650000  39.0170000  70.8980000
  34.0920000  38.5330000  71.6920000  33.6160000  38.3410000  70.2670000
  61.9500000  74.2040000  84.3200000  62.2460000  75.0660000  84.6140000
  60.9950000  74.2670000  84.3170000  51.5390000  77.6380000  90.3840000
  50.7490000  77.3530000  89.9260000  51.3850000  78.5640000  90.5750000
  79.6850000  39.6780000  86.1550000  80.3000000  40.1930000  85.6330000
  78.8240000  39.8940000  85.7940000  74.4290000  63.5240000  91.5440000
  73.8200000  63.8240000  92.2190000  75.2580000  63.9500000  91.7620000
  38.7230000  52.0270000  62.0870000  39.2250000  52.8390000  62.1570000
  37.8090000  52.3020000  62.1590000  38.1490000  76.4160000  60.7850000
  37.9350000  76.0570000  61.6460000  37.3030000  76.6590000  60.4090000
  75.2190000  58.6800000  70.3670000  76.0580000  59.0570000  70.6290000
  74.5790000  59.3710000  70.5410000  52.9220000  83.4640000  64.2330000
  52.4530000  82.7490000  63.8030000  52.8580000  83.2650000  65.1680000
  34.1730000  49.7630000  77.9920000  34.8150000  49.2130000  77.5450000
  33.4260000  49.1840000  78.1470000  61.5820000  58.7370000  59.1420000
  62.1210000  58.5360000  58.3770000  60.8400000  59.2290000  58.7900000
  62.5860000  52.2280000  64.2560000  62.7560000  51.7440000  65.0640000
  62.5410000  53.1450000  64.5310000  40.8010000  33.7520000  90.0690000
  41.5360000  33.6700000  90.6760000  40.5000000  32.8530000  89.9340000
  81.8140000  78.2360000  87.4110000  81.2740000  77.5400000  87.0370000
  81.7080000  78.1390000  88.3580000  31.5620000  40.3550000  94.8280000
  32.4320000  40.2500000  95.2120000  31.6270000  41.1510000  94.3000000
  42.2350000  72.5870000  86.8320000  41.7670000  72.9020000  87.6040000
  42.0680000  71.6440000  86.8180000  67.7960000  50.7750000  73.3230000
  67.0760000  51.4030000  73.3780000  67.3660000  49.9270000  73.2110000
  65.4930000  37.5450000  68.5050000  66.2900000  37.0500000  68.3160000
  64.8020000  36.8840000  68.5420000  60.8920000  47.9730000  76.1650000
  61.6440000  47.8380000  75.5880000  61.2110000  48.5760000  76.8370000
  34.1690000  56.2730000  60.9140000  34.8560000  56.2420000  60.2490000
  34.0810000  57.2030000  61.1250000  37.4290000  79.4540000  59.8300000
  37.3960000  80.3730000  60.0930000  36.5250000  79.2370000  59.6000000
  39.4940000  71.0040000  57.5780000  40.1100000  71.7330000  57.5030000
  38.6310000  71.4190000  57.5730000  78.6150000  58.2990000  84.7470000
  77.9790000  57.5930000  84.8630000  79.3780000  57.8730000  84.3570000
  57.4620000  80.4940000  57.9080000  58.3960000  80.6370000  58.0600000
  57.2560000  79.7060000  58.4120000  67.3710000  56.2870000  78.4040000
  68.0940000  56.2800000  77.7780000  67.0960000  55.3710000  78.4640000
  36.9850000  58.0130000  96.5000000  36.1040000  57.6420000  96.4580000
  37.4950000  57.4920000  95.8790000  73.4140000  48.0840000  90.8560000
  72.6840000  47.8390000  91.4250000  73.1800000  48.9510000  90.5260000
  57.5700000  74.4500000  84.0060000  58.3740000  74.9680000  84.0250000
  56.9020000  75.0320000  84.3700000  40.4320000  57.8380000  71.0770000
  39.8370000  58.3170000  70.4990000  41.2450000  58.3430000  71.0560000
  74.4130000  44.8880000  92.7490000  74.2200000  45.8020000  92.5420000
  74.5000000  44.8720000  93.7030000  66.3330000  67.1220000  76.1430000
  65.7490000  67.3180000  76.8750000  65.7500000  66.8290000  75.4430000
  63.2230000  83.4260000  96.4600000  63.3970000  83.2520000  95.5350000
  62.2810000  83.5920000  96.5000000  79.1600000  40.4210000  64.1350000
  78.3190000  39.9950000  63.9720000  79.7400000  39.7100000  64.4100000
  47.6440000  85.6230000  96.4870000  46.6870000  85.6220000  96.4820000
  47.8850000  84.6970000  96.5000000  66.3090000  71.4520000  82.5240000
  65.3910000  71.3960000  82.2620000  66.6110000  70.5430000  82.5350000
  65.4410000  80.6480000  72.8970000  65.7460000  81.3890000  72.3730000
  66.1670000  80.4580000  73.4910000  86.1140000  77.6800000  78.4550000
  86.1530000  77.1280000  77.6740000  86.4430000  77.1210000  79.1600000
  50.9130000  51.9480000  87.0620000  51.3940000  51.3590000  87.6420000
  50.9730000  52.8050000  87.4860000  51.7270000  77.7620000  56.0040000
  52.2450000  76.9580000  56.0100000  50.8180000  77.4620000  56.0000000
  80.6050000  35.7460000  60.7840000  80.7530000  34.8020000  60.7330000
  79.6540000  35.8380000  60.8470000  49.3510000  33.8760000  87.5080000
  49.7180000  33.0000000  87.6220000  48.5020000  33.8400000  87.9480000
  37.6700000  41.3750000  69.9560000  37.3690000  42.2780000  69.8550000
  38.0570000  41.3480000  70.8320000  86.0010000  48.0860000  92.1910000
  86.4190000  47.2270000  92.1360000  85.0890000  47.9250000  91.9460000
  88.9210000  61.2370000  86.0950000  89.0000000  60.4310000  85.5850000
  89.0000000  61.9390000  85.4480000  88.9110000  75.4630000  93.5110000
  89.0000000  75.4180000  94.4620000  87.9680000  75.3960000  93.3550000
  50.3480000  66.6320000  85.4280000  49.5940000  66.7230000  86.0100000
  50.0790000  65.9710000  84.7890000  36.1240000  31.0000000  83.3170000
  35.6510000  31.1140000  82.4920000  36.0150000  31.8350000  83.7730000
  39.2200000  80.9110000  71.5770000  39.5470000  80.0260000  71.4140000
  38.3790000  80.7790000  72.0150000  49.0640000  43.0300000  83.8600000
  49.0040000  43.9850000  83.8470000  50.0020000  42.8480000  83.7880000
  51.7040000  72.9920000  96.4760000  50.7970000  72.6880000  96.5000000
  52.2110000  72.2190000  96.2270000  81.0860000  80.3210000  62.3670000
  80.3780000  80.1440000  62.9860000  81.4730000  81.1420000  62.6740000
  73.2500000  54.7440000  80.2940000  73.7970000  53.9620000  80.3640000
  73.3010000  55.1520000  81.1580000  63.6210000  41.4700000  62.6240000
  63.6380000  40.6530000  63.1220000  64.1770000  42.0680000  63.1250000
  66.2500000  62.3830000  59.4870000  67.0740000  61.9930000  59.1980000
  66.1410000  63.1540000  58.9290000  45.2210000  49.3460000  93.4140000
  46.1380000  49.5850000  93.5510000  45.2280000  48.3900000  93.3610000
  44.5920000  33.1410000  70.1760000  45.5390000  33.2650000  70.1170000
  44.2220000  33.9490000  69.8200000  48.3050000  63.3050000  68.5970000
  49.1710000  63.5640000  68.9140000  48.4830000  62.6440000  67.9270000
  87.8440000  63.8480000  61.7820000  87.7380000  62.9070000  61.9180000
  88.7880000  63.9690000  61.6700000  69.8510000  67.1950000  56.0000000
  69.5680000  66.2810000  56.0220000  69.0380000  67.7000000  56.0440000
  41.6850000  63.1320000  88.7690000  42.5800000  63.1360000  89.1090000
  41.5310000  62.2230000  88.5110000  88.0970000  76.1390000  67.8700000
  88.1530000  77.0900000  67.7790000  89.0000000  75.8350000  67.7740000
  60.4050000  69.5570000  72.5640000  60.6080000  69.3140000  71.6610000
  61.1510000  70.0880000  72.8430000  53.8840000  78.6930000  92.4530000
  53.4670000  78.0070000  91.9320000  53.6650000  79.5070000  91.9990000
  39.6740000  32.8970000  76.8920000  39.4350000  32.7980000  75.9700000
  40.6210000  32.7560000  76.9110000  70.0860000  83.0320000  96.4350000
  70.2170000  83.9770000  96.5000000  69.1510000  82.9320000  96.2520000
  66.5810000  67.9510000  91.5090000  66.6500000  67.3320000  90.7820000
  66.6900000  68.8110000  91.1030000  63.1170000  33.8950000  93.6730000
  63.5240000  34.6270000  93.2110000  63.6800000  33.1450000  93.4780000
  66.0240000  34.6610000  62.5700000  66.7540000  35.2750000  62.4970000
  65.6280000  34.8590000  63.4190000  49.1440000  83.8480000  83.6790000
  48.7750000  83.3710000  84.4230000  49.9880000  84.1720000  83.9960000
  44.5010000  31.0120000  71.9290000  44.0170000  31.0860000  72.7510000
  43.8240000  31.0040000  71.2520000  33.2160000  84.1760000  59.4640000
  32.6610000  84.5050000  58.7570000  34.1100000  84.3210000  59.1550000
  48.5730000  76.3380000  79.5990000  49.3290000  76.6260000  80.1100000
  48.4920000  75.4040000  79.7950000  47.6440000  76.7990000  88.7010000
  48.3040000  76.6000000  89.3650000  46.9780000  77.3040000  89.1680000
  80.9590000  64.5900000  90.3030000  80.9430000  63.6990000  90.6530000
  81.6140000  65.0440000  90.8340000  80.7110000  85.3330000  80.6080000
  81.4380000  85.3450000  79.9860000  80.3140000  84.4680000  80.4950000
  75.1150000  40.8860000  63.5210000  75.6130000  40.1710000  63.1250000
  74.5310000  41.1870000  62.8240000  88.4220000  50.7980000  61.8190000
  88.9990000  51.4890000  62.1430000  88.9920000  50.2370000  61.2910000
  38.3380000  86.7380000  78.3680000  37.5610000  86.2550000  78.6490000
  38.9120000  86.7350000  79.1350000  59.2320000  82.3830000  96.4380000
  58.3060000  82.6230000  96.4410000  59.2330000  81.4250000  96.4360000
  43.1260000  73.9600000  66.3580000  43.8920000  74.5290000  66.2880000
  42.3910000  74.5610000  66.4800000  31.0000000  50.5080000  88.9770000
  31.4880000  51.3020000  88.7580000  31.0090000  49.9920000  88.1700000
  55.7810000  47.9660000  67.5200000  55.1930000  47.2340000  67.3340000
  56.5870000  47.5520000  67.8310000  49.4710000  67.6690000  78.6150000
  49.1340000  68.3290000  79.2200000  49.2940000  68.0270000  77.7450000
  49.2720000  58.3130000  90.3200000  48.5700000  58.5290000  89.7070000
  50.0770000  58.4410000  89.8180000  33.7920000  76.3880000  92.6030000
  34.1400000  77.2640000  92.7720000  33.2490000  76.4930000  91.8210000
  32.7950000  45.8700000  92.9240000  32.0780000  46.1320000  92.3460000
  33.1390000  46.6950000  93.2680000  36.7590000  39.5220000  77.7640000
  36.3450000  40.3060000  77.4060000  36.1200000  38.8240000  77.6150000
  83.0030000  57.4270000  69.5200000  82.5770000  56.7350000  69.0140000
  82.8760000  57.1690000  70.4330000  80.0010000  77.3830000  70.5240000
  79.1990000  77.7250000  70.1290000  80.6960000  77.9440000  70.1780000
  71.3250000  74.4860000  82.0950000  70.9860000  75.3170000  82.4280000
  70.5820000  74.0870000  81.6430000  41.5640000  37.2390000  69.1760000
  40.8860000  36.9570000  69.7890000  41.0850000  37.6840000  68.4760000
  83.7770000  69.5300000  88.0260000  83.4020000  69.6410000  87.1530000
  83.5060000  68.6510000  88.2940000  40.0860000  83.7370000  78.2440000
  39.3630000  84.3450000  78.0910000  40.8540000  84.2980000  78.3510000
  40.3350000  35.7190000  76.4780000  40.7500000  36.5800000  76.5020000
  40.2460000  35.5210000  75.5460000  48.7440000  47.9900000  69.5680000
  49.2190000  47.4010000  70.1530000  49.3800000  48.2190000  68.8890000
  54.4520000  51.9930000  85.0440000  54.3290000  52.3300000  84.1570000
  54.0690000  52.6630000  85.6110000  68.6880000  83.1570000  78.7340000
  68.8560000  82.5540000  79.4580000  68.9910000  84.0070000  79.0540000
  33.6710000  65.2200000  91.6210000  32.9150000  64.6800000  91.8480000
  33.6510000  65.2710000  90.6650000  40.3050000  53.1380000  94.5170000
  40.8090000  53.9410000  94.6510000  39.5360000  53.2410000  95.0780000
  75.8460000  52.9900000  88.9230000  75.4270000  53.6770000  89.4420000
  76.2800000  53.4580000  88.2100000  43.3690000  50.2240000  76.7370000
  42.7430000  49.5080000  76.8420000  44.2110000  49.7890000  76.5970000
  86.1870000  75.3450000  81.0920000  85.3970000  74.9990000  81.5070000
  86.2390000  74.8830000  80.2550000  79.8800000  68.7590000  84.3000000
  79.0660000  68.7680000  84.8040000  80.0070000  67.8390000  84.0670000
  88.7980000  82.3800000  83.0190000  89.0000000  83.0650000  83.6570000
  88.2600000  81.7530000  83.5030000  33.5450000  46.9900000  73.1980000
  33.5410000  46.0940000  72.8620000  34.3730000  47.3580000  72.8900000
  80.6510000  31.0000000  62.4430000  80.9090000  31.8760000  62.7280000
  80.0950000  31.1500000  61.6780000  34.5090000  31.0010000  78.4650000
  33.6770000  31.0060000  77.9930000  35.0140000  31.7110000  78.0680000
  34.9290000  76.6890000  68.7370000  34.9700000  77.6100000  68.4800000
  35.5180000  76.2440000  68.1270000  86.7910000  71.0910000  70.4620000
  85.9170000  71.2200000  70.8310000  86.9340000  70.1450000  70.5080000
  64.4830000  41.4990000  85.3450000  64.8560000  41.9660000  86.0930000
  65.0760000  40.7600000  85.2030000  85.2730000  36.3600000  85.9320000
  86.1400000  36.5450000  86.2930000  84.6640000  36.6350000  86.6170000
  71.1110000  88.0030000  73.7200000  71.3830000  88.6510000  74.3700000
  70.1540000  88.0450000  73.7260000  55.5490000  61.8640000  56.0000000
  56.1850000  62.5790000  56.0060000  56.0820000  61.0690000  56.0060000
  76.0790000  45.4480000  71.4760000  76.9930000  45.2690000  71.6990000
  75.7090000  45.8320000  72.2710000  78.9110000  38.7960000  73.4810000
  79.0620000  39.5130000  74.0950000  78.8290000  39.2230000  72.6280000
  56.2130000  39.4630000  74.5630000  55.8900000  38.7300000  75.0850000
  56.9540000  39.1030000  74.0750000  42.0630000  45.3730000  72.4200000
  41.2110000  45.1890000  72.8170000  41.8530000  45.7380000  71.5600000
  79.5420000  86.0990000  74.0340000  78.9160000  85.4200000  73.7820000
  79.0050000  86.8780000  74.1790000  68.2700000  55.6690000  80.8550000
  68.8040000  55.1970000  81.4940000  68.7180000  56.5080000  80.7420000
  74.0900000  88.0960000  61.5840000  73.1740000  87.9010000  61.3860000
  74.5290000  87.2450000  61.5520000  89.0000000  49.6130000  64.8230000
  88.9810000  50.4570000  65.2740000  88.3460000  49.6970000  64.1290000
  50.6960000  67.5270000  68.8980000  51.5020000  67.3700000  68.4070000
  50.9920000  67.7480000  69.7820000  31.3820000  34.1920000  80.6020000
  31.0000000  33.3750000  80.9220000  31.0000000  34.8700000  81.1590000
  88.8630000  61.1890000  71.4440000  89.0000000  60.2510000  71.3150000
  88.9650000  61.5690000  70.5710000  55.4330000  47.2360000  78.7760000
  55.2050000  48.1130000  78.4670000  55.1460000  47.2210000  79.6890000
  88.4150000  34.8790000  69.5110000  89.0000000  35.6330000  69.5720000
  89.0000000  34.1290000  69.4020000  71.9170000  65.0750000  87.9410000
  72.2040000  64.1630000  87.9080000  70.9700000  65.0340000  87.8090000
  57.1730000  51.8820000  89.1960000  58.0270000  52.1030000  89.5660000
  57.2270000  50.9450000  89.0100000  55.6660000  32.0680000  82.1250000
  55.1350000  32.7490000  81.7130000  55.2130000  31.8740000  82.9460000
  50.5050000  80.2420000  68.1210000  50.0100000  79.4920000  68.4490000
  51.0150000  79.8920000  67.3900000  42.0450000  71.6560000  70.6400000
  41.9850000  72.6090000  70.5900000  42.9500000  71.4860000  70.9020000
  80.7870000  38.7170000  75.7200000  81.2640000  39.5360000  75.5880000
  81.4580000  38.0360000  75.6510000  59.9660000  67.1440000  57.8160000
  60.9200000  67.0670000  57.8210000  59.7970000  68.0500000  58.0770000
  48.7030000  39.8070000  95.7300000  49.3610000  40.4220000  96.0550000
  49.0420000  39.5190000  94.8830000  58.4550000  31.1570000  71.7100000
  57.8430000  31.7020000  72.2040000  59.0500000  31.7810000  71.2930000
  85.6710000  72.8530000  59.5110000  84.9150000  72.4230000  59.9100000
  86.4180000  72.5560000  60.0310000  40.3740000  74.8050000  73.9090000
  39.4630000  74.5160000  73.8620000  40.3240000  75.7060000  74.2300000
  71.9650000  82.9230000  74.2020000  72.4040000  82.8200000  73.3580000
  71.5770000  83.7980000  74.1650000  75.8530000  70.7070000  74.3650000
  75.3540000  70.0790000  73.8430000  75.2460000  70.9850000  75.0510000
  32.2450000  86.6680000  72.8010000  31.6240000  86.0930000  73.2470000
  32.8620000  86.9310000  73.4850000  66.1750000  55.3770000  83.1450000
  66.6860000  54.6090000  82.8920000  66.6370000  56.1150000  82.7460000
  74.7330000  61.4600000  79.0750000  74.6190000  62.0800000  78.3550000
  75.5960000  61.0750000  78.9270000  49.6500000  77.9520000  82.2880000
  50.4250000  78.1530000  81.7640000  49.9750000  77.3870000  82.9900000
  54.6840000  31.1060000  96.3760000  55.4230000  31.0000000  95.7770000
  54.6100000  32.0530000  96.5000000  74.7320000  60.4750000  76.2160000
  75.6850000  60.4500000  76.1310000  74.5430000  59.9120000  76.9670000
  77.3880000  85.6530000  71.1630000  76.9810000  84.9830000  71.7120000
  77.7020000  86.3120000  71.7830000  81.4310000  76.9610000  82.4790000
  82.3580000  77.1570000  82.3440000  81.3870000  76.0050000  82.4910000
  33.8250000  41.5760000  77.5870000  33.1500000  41.2040000  77.0190000
  33.9590000  42.4630000  77.2520000  47.5570000  65.2510000  72.3480000
  46.8390000  64.9220000  71.8090000  47.5120000  66.2030000  72.2530000
  43.0470000  35.9420000  63.2020000  43.2870000  35.1340000  63.6560000
  43.4510000  36.6380000  63.7210000  47.2850000  61.2330000  95.9400000
  46.7200000  61.7970000  96.4670000  48.0420000  61.0600000  96.5000000
  44.7610000  78.8780000  74.1570000  43.8550000  79.1890000  74.1630000
  45.2680000  79.6090000  74.5120000  61.3030000  55.0610000  70.5780000
  60.3980000  54.7560000  70.5140000  61.2300000  56.0110000  70.6680000
  57.8520000  56.5180000  82.7980000  58.5690000  57.0340000  82.4290000
  58.2580000  55.6890000  83.0510000  36.1430000  31.0040000  60.6990000
  36.2690000  31.7390000  61.2980000  35.4330000  31.2840000  60.1210000
  53.4400000  80.9720000  71.7920000  52.9760000  80.2830000  71.3180000
  52.9850000  81.0340000  72.6320000  56.2750000  87.1040000  68.3090000
  55.3440000  86.8830000  68.3540000  56.3830000  87.5170000  67.4520000
  33.0840000  38.8060000  84.9900000  33.6970000  38.5170000  84.3140000
  33.3340000  39.7130000  85.1690000  31.0000000  46.9350000  74.0670000
  31.0850000  46.5450000  73.1970000  31.3180000  47.8320000  73.9600000
  41.2550000  55.0800000  65.9940000  40.6790000  55.8430000  66.0290000
  40.6680000  54.3420000  65.8270000  85.4300000  70.0970000  59.1540000
  84.7830000  69.5220000  58.7470000  85.7910000  70.6040000  58.4260000
  46.4430000  74.5590000  73.0790000  46.9510000  74.2290000  72.3380000
  46.5820000  75.5060000  73.0620000  36.6490000  31.9870000  80.1630000
  36.8500000  31.0530000  80.1070000  37.0420000  32.3650000  79.3760000
  75.0000000  50.7010000  71.9810000  75.0220000  50.2890000  71.1170000
  75.8000000  50.3990000  72.4110000  64.5990000  46.5000000  89.3060000
  64.9700000  47.0480000  88.6150000  63.6550000  46.6550000  89.2550000
  72.5620000  60.0240000  80.0570000  72.1490000  59.6780000  80.8480000
  72.6410000  59.2660000  79.4770000  67.0300000  81.7700000  70.2620000
  67.9110000  81.9000000  70.6120000  67.1130000  81.9530000  69.3260000
  86.9030000  59.8010000  72.8520000  86.2160000  60.2990000  73.2950000
  86.6260000  59.7730000  71.9350000  58.6150000  58.2850000  56.0000000
  58.3930000  57.3540000  56.0000000  57.7690000  58.7340000  56.0000000
  85.8340000  38.8260000  88.9820000  86.1240000  37.9180000  88.9000000
  85.9250000  39.0240000  89.9140000  52.2040000  47.0780000  90.3710000
  52.1990000  47.2690000  91.3090000  53.0420000  46.6410000  90.2200000
  39.3810000  77.9910000  93.4180000  39.8070000  78.8480000  93.4400000
  38.7770000  78.0050000  94.1610000  37.6750000  67.0590000  65.5520000
  38.6060000  66.8480000  65.6050000  37.4900000  67.0960000  64.6130000
  47.0450000  85.2870000  83.3010000  46.9520000  85.3420000  82.3510000
  46.6080000  86.0730000  83.6310000  45.9050000  77.8730000  78.9390000
  46.4250000  78.0280000  79.7270000  46.4810000  77.3650000  78.3680000
  83.2790000  83.1230000  56.8220000  83.8600000  83.8790000  56.9010000
  83.7740000  82.3980000  57.2040000  45.5060000  51.4560000  78.5650000
  44.7060000  51.7870000  78.1570000  45.9920000  51.0510000  77.8460000
  68.2680000  80.5770000  83.4640000  68.4930000  79.6470000  83.4730000
  68.6600000  80.9270000  84.2640000  54.2050000  42.7170000  74.8730000
  54.4110000  43.4640000  74.3110000  53.2590000  42.7770000  75.0140000
  88.9990000  78.3040000  70.3340000  88.9280000  78.7440000  69.4870000
  88.9820000  77.3700000  70.1210000  41.4050000  44.4500000  83.5240000
  40.7510000  44.5100000  82.8280000  40.9970000  44.8830000  84.2740000
  79.2610000  44.4850000  77.1370000  79.0690000  45.4170000  77.2410000
  78.4150000  44.0870000  76.9320000  60.7710000  53.3320000  82.8580000
  60.2870000  52.6180000  82.4440000  60.1560000  54.0660000  82.8640000
  73.0420000  37.9530000  81.0910000  72.6920000  37.1050000  81.3600000
  73.0610000  38.4720000  81.8950000  40.8090000  63.7960000  82.8300000
  41.5970000  64.1540000  82.4210000  41.1390000  63.2210000  83.5210000
  60.4760000  31.0460000  68.8050000  60.8270000  31.0000000  67.9160000
  60.6570000  31.9430000  69.0880000  72.9480000  31.0000000  92.4340000
  72.0260000  31.0120000  92.1780000  72.9830000  31.5370000  93.2270000
  57.8540000  77.8130000  69.1530000  58.5310000  78.4640000  69.3360000
  57.1340000  78.3150000  68.7710000  84.5840000  31.5000000  96.3830000
  85.3910000  31.0000000  96.5000000  84.1530000  31.0880000  95.6330000
  36.4770000  33.4660000  93.8280000  36.6880000  32.6700000  94.3160000
  36.7580000  34.1800000  94.4010000  61.9450000  54.3370000  90.7480000
  61.1300000  54.7550000  91.0240000  62.4910000  55.0590000  90.4360000
  88.9780000  60.0390000  64.3100000  89.0000000  59.3570000  64.9810000
  88.1460000  60.4910000  64.4540000  52.0170000  58.1540000  67.7870000
  51.9740000  58.1970000  68.7420000  52.0930000  59.0670000  67.5090000
  64.6180000  69.1590000  58.0630000  65.4230000  69.4650000  58.4800000
  64.6770000  68.2040000  58.0980000  39.6390000  70.6730000  64.7160000
  40.3480000  70.5470000  65.3460000  39.2270000  69.8110000  64.6440000
  31.0550000  83.7310000  56.5850000  31.0000000  84.4880000  56.0020000
  31.0100000  82.9740000  56.0000000  33.7900000  53.3480000  71.5480000
  33.3130000  54.0810000  71.9370000  34.2490000  53.7310000  70.7990000
  83.7450000  60.0860000  87.3200000  83.8230000  60.0240000  86.3680000
  83.1500000  60.8220000  87.4640000  71.2280000  43.7340000  79.9210000
  70.5390000  44.1790000  80.4140000  71.1620000  42.8180000  80.1900000
  83.4950000  71.8720000  75.1950000  82.5990000  71.5940000  75.0090000
  83.9740000  71.0560000  75.3420000  58.9750000  76.5860000  82.0850000
  59.2560000  77.5000000  82.1240000  58.1320000  76.6150000  81.6310000
  53.8780000  62.5150000  70.2360000  54.1390000  63.4360000  70.2340000
  54.7050000  62.0310000  70.2360000  55.6370000  31.1030000  56.7140000
  54.9940000  31.0110000  56.0110000  55.1290000  31.0000000  57.5190000
  72.6510000  43.6880000  64.9950000  71.7190000  43.4740000  65.0500000
  73.0360000  42.9580000  64.5090000  75.6790000  88.9980000  86.3690000
  75.8940000  88.9720000  85.4370000  76.5280000  89.0000000  86.8110000
  59.6790000  46.0790000  67.0320000  58.7670000  45.8210000  66.9030000
  60.1590000  45.2520000  67.0750000  47.8780000  43.1670000  87.0810000
  47.4830000  42.4600000  87.5900000  48.1170000  43.8270000  87.7320000
  40.7360000  33.2430000  63.8100000  40.7660000  34.1910000  63.6820000
  39.8770000  32.9830000  63.4770000  85.7170000  80.4020000  76.3490000
  85.8200000  79.6550000  76.9390000  85.8870000  80.0440000  75.4770000
  66.4450000  71.5940000  87.5970000  65.5240000  71.8530000  87.6090000
  66.9230000  72.4000000  87.7930000  43.7620000  83.6680000  77.7540000
  44.6500000  83.9910000  77.9020000  43.2390000  84.4590000  77.6170000
  88.8680000  47.9720000  91.3510000  89.0000000  48.2980000  90.4610000
  88.9840000  47.0240000  91.2790000  82.5030000  58.1090000  78.5500000
  82.7290000  57.8830000  79.4520000  82.3120000  59.0470000  78.5780000
  44.2270000  73.1470000  60.5350000  44.5890000  72.4920000  61.1320000
  44.9620000  73.3940000  59.9750000  63.0270000  43.8570000  66.1980000
  63.0940000  44.3630000  67.0080000  63.8330000  44.0590000  65.7220000
  79.2280000  59.6620000  75.0510000  79.5880000  59.8180000  75.9240000
  78.2780000  59.6870000  75.1750000  85.3300000  31.1640000  78.3850000
  85.5890000  31.0000000  79.2920000  85.3260000  32.1180000  78.3050000
  74.3090000  80.8710000  90.9910000  73.3740000  80.6820000  90.9190000
  74.7260000  80.0100000  91.0310000  64.6790000  55.6380000  77.4070000
  64.8540000  56.3170000  76.7560000  64.7090000  56.0970000  78.2470000
  56.1260000  80.1350000  83.2240000  56.0580000  81.0750000  83.3890000
  56.8860000  80.0460000  82.6490000  33.4280000  78.2740000  56.9260000
  33.2970000  78.0730000  56.0000000  32.9970000  77.5560000  57.3910000
  32.7910000  81.9170000  88.3830000  33.1820000  81.5730000  89.1860000
  32.2710000  81.1900000  88.0390000  86.7140000  57.1760000  83.1840000
  86.2630000  57.4790000  82.3970000  86.1140000  56.5400000  83.5750000
  41.1930000  77.8650000  95.4990000  41.5670000  77.0220000  95.2420000
  41.8790000  78.5020000  95.2990000  66.6360000  78.0980000  78.6380000
  66.5990000  78.9950000  78.3070000  66.2810000  77.5650000  77.9270000
  65.9010000  78.7340000  65.3200000  65.4770000  78.6650000  64.4650000
  65.6070000  77.9570000  65.7970000  77.1770000  31.5700000  85.4770000
  77.3470000  31.1590000  86.3240000  76.5110000  31.0150000  85.0700000
  49.6160000  79.0650000  59.6970000  49.2630000  79.9460000  59.5790000
  49.4600000  78.6290000  58.8590000  52.1480000  40.5090000  69.7880000
  51.9160000  40.9630000  68.9780000  51.3140000  40.1840000  70.1280000
  56.4820000  66.1260000  70.4050000  55.6800000  65.9750000  70.9050000
  56.8050000  66.9720000  70.7180000  88.7930000  67.7610000  81.5780000
  87.9280000  67.3700000  81.6990000  89.0000000  68.1530000  82.4270000
  79.0350000  68.1240000  96.4890000  78.3820000  67.4240000  96.4630000
  78.5200000  68.9310000  96.5000000  61.9750000  81.0830000  96.4670000
  62.9210000  80.9440000  96.5000000  61.7120000  80.7470000  95.6100000
  33.7190000  34.0200000  76.4430000  34.2100000  33.9970000  75.6220000
  33.5180000  33.1030000  76.6280000  45.2240000  56.5180000  62.1310000
  45.0410000  56.9440000  62.9690000  44.8620000  55.6360000  62.2270000
  72.8810000  85.9140000  58.8840000  71.9530000  86.1100000  59.0120000
  73.2690000  86.0090000  59.7550000  77.9300000  62.0210000  96.3410000
  78.5140000  62.7620000  96.5000000  77.9840000  61.8720000  95.3960000
  83.0670000  68.9070000  74.1740000  83.3990000  68.0110000  74.2270000
  82.2450000  68.8880000  74.6640000  60.3400000  59.1440000  76.8930000
  59.6030000  58.8110000  76.3820000  60.7860000  59.7530000  76.3040000
  86.1260000  62.4110000  60.0160000  86.6850000  61.8100000  59.5230000
  85.7800000  61.8810000  60.7350000  62.9740000  41.5360000  81.2510000
  62.6250000  42.3940000  81.4930000  63.6780000  41.3770000  81.8800000
  58.4380000  50.7700000  71.2770000  57.6680000  50.2040000  71.2420000
  59.1680000  50.1960000  71.0420000  50.7260000  61.0830000  77.1940000
  51.6790000  61.1720000  77.2080000  50.4000000  61.9790000  77.2820000
  77.5980000  73.2560000  83.9070000  76.7880000  73.7100000  84.1380000
  77.3320000  72.6060000  83.2570000  33.4670000  74.6900000  81.8900000
  33.8190000  74.1520000  82.5980000  33.1310000  74.0580000  81.2530000
  76.4190000  36.6980000  56.0190000  76.1550000  36.9470000  56.9050000
  77.3640000  36.8450000  56.0000000  72.7180000  60.7620000  95.5510000
  72.5950000  60.7580000  96.5000000  72.2080000  60.0140000  95.2400000
  37.2970000  75.1470000  65.4480000  36.9120000  75.7060000  66.1220000
  37.0670000  75.5740000  64.6220000  74.7540000  31.8480000  56.3520000
  75.1910000  31.0000000  56.2730000  75.3850000  32.4760000  56.0000000
  65.4550000  45.2000000  70.4370000  65.4010000  44.2550000  70.5770000
  66.3680000  45.3560000  70.1970000  65.5360000  63.7610000  67.6270000
  64.8950000  63.0520000  67.6810000  65.7920000  63.9230000  68.5350000
  56.3440000  51.4290000  91.7210000  55.6180000  51.4190000  91.0980000
  56.7400000  50.5610000  91.6410000  31.4820000  57.6200000  67.9570000
  31.2010000  57.6950000  68.8690000  31.0130000  58.3210000  67.5030000
  40.0130000  65.8470000  75.8640000  39.7260000  66.6870000  75.5070000
  39.7800000  65.8890000  76.7920000  77.9440000  88.5090000  67.0520000
  78.3030000  87.6650000  66.7780000  78.7020000  89.0000000  67.3710000
  72.3510000  56.3900000  73.8380000  72.8090000  55.8590000  73.1870000
  72.1590000  55.7820000  74.5520000  86.4790000  46.5590000  89.3740000
  85.5550000  46.5360000  89.6200000  86.7170000  47.4850000  89.4180000
  66.3740000  57.7330000  85.8320000  66.7800000  57.3290000  86.5980000
  66.6270000  57.1690000  85.1010000  56.5810000  52.0420000  86.4740000
  56.0700000  51.3120000  86.8240000  57.4630000  51.6860000  86.3620000
  82.9870000  86.5840000  64.2820000  82.0850000  86.6720000  63.9750000
  83.1150000  85.6400000  64.3840000  81.0170000  70.8960000  85.7210000
  80.1510000  70.6470000  86.0450000  81.1230000  71.8070000  85.9950000
  61.4480000  89.0000000  61.8930000  60.6700000  88.9420000  61.3390000
  62.1820000  88.9210000  61.2830000  88.9160000  52.6040000  59.0560000
  88.8480000  51.6500000  59.0490000  88.0090000  52.9100000  59.0200000
  75.2890000  50.8070000  64.0080000  74.4740000  50.5800000  63.5600000
  75.6380000  49.9690000  64.3120000  37.7640000  53.4640000  84.2090000
  38.3990000  53.2210000  83.5350000  37.2960000  52.6510000  84.4020000
  54.3310000  49.0200000  70.3340000  54.1970000  48.5550000  71.1590000
  54.4380000  49.9370000  70.5880000  67.5020000  40.9950000  75.6430000
  67.7320000  40.4530000  74.8880000  68.3430000  41.2260000  76.0380000
  40.9360000  37.7440000  74.2890000  41.0750000  38.0710000  73.4010000
  40.0290000  37.9770000  74.4920000  41.3770000  57.3790000  94.0020000
  40.4690000  57.6720000  94.0800000  41.3120000  56.4440000  93.8060000
  54.7300000  31.0000000  69.0460000  55.3130000  31.0010000  69.8050000
  54.6980000  31.9160000  68.7670000  68.5330000  75.3340000  56.1640000
  69.3790000  75.7760000  56.0880000  68.7490000  74.4020000  56.1750000
  60.0270000  57.1000000  89.6530000  60.8170000  56.7410000  89.2480000
  60.2180000  58.0320000  89.7650000  50.1550000  36.3480000  73.1410000
  49.7090000  36.3610000  72.2940000  49.4760000  36.0870000  73.7650000
  74.1950000  35.4390000  91.4240000  74.7130000  35.4150000  92.2290000
  73.4740000  36.0370000  91.6210000  50.1990000  41.1570000  81.8320000
  49.6880000  40.4310000  81.4750000  49.9230000  41.9190000  81.3230000
  50.0130000  55.3090000  88.4320000  50.8090000  55.8310000  88.5380000
  49.3300000  55.8220000  88.8650000  79.5850000  31.4220000  72.6950000
  79.4480000  32.2710000  72.2760000  78.7890000  31.2750000  73.2060000
  72.8230000  87.5580000  63.8640000  72.9140000  88.5110000  63.8640000
  71.8780000  87.4070000  63.8460000  34.8000000  52.6690000  94.1390000
  33.9470000  53.0930000  94.2390000  34.6480000  51.9720000  93.5000000
  71.6210000  31.6040000  85.4100000  72.1480000  31.0000000  84.8870000
  71.3630000  32.2910000  84.7960000  88.9490000  42.8740000  64.1660000
  88.9990000  43.8150000  64.3340000  88.0570000  42.7350000  63.8460000
  75.7170000  76.8170000  94.4160000  76.4080000  76.2700000  94.7910000
  75.3070000  76.2630000  93.7500000  38.6370000  68.8320000  85.7010000
  38.9230000  68.0880000  85.1710000  37.8070000  68.5480000  86.0850000
  38.6010000  51.4030000  80.5880000  38.8490000  51.4380000  81.5120000
  39.3340000  51.8110000  80.1270000  45.6100000  46.0280000  61.2450000
  46.4630000  46.4240000  61.4220000  45.0400000  46.7680000  61.0350000
  53.2370000  33.9920000  60.3380000  53.2720000  34.7970000  59.8210000
  54.0560000  33.5400000  60.1330000  52.2480000  55.0310000  69.8850000
  52.0200000  55.1940000  68.9700000  52.2870000  55.9020000  70.2810000
  75.4170000  74.6940000  91.5170000  75.0240000  73.8220000  91.5030000
  76.3610000  74.5320000  91.5370000  64.6370000  45.8940000  75.2360000
  63.8740000  46.3480000  74.8790000  64.3430000  45.5590000  76.0830000
  86.1220000  47.0220000  81.5800000  86.3440000  47.9530000  81.5930000
  86.9670000  46.5750000  81.5160000  84.4180000  57.1700000  58.5380000
  85.1730000  57.1290000  57.9520000  83.9940000  58.0020000  58.3260000
  52.0700000  62.4730000  67.4290000  52.3510000  61.9690000  68.1920000
  51.3850000  61.9380000  67.0270000  77.5600000  80.0020000  56.0820000
  76.9320000  79.2840000  56.0000000  77.0220000  80.7940000  56.0760000
  62.2940000  53.9040000  78.5640000  62.8730000  53.1930000  78.2890000
  62.0780000  54.3650000  77.7530000  47.9950000  74.8890000  86.0440000
  47.3860000  74.2390000  85.6930000  47.5630000  75.7300000  85.8910000
  87.4110000  55.0040000  89.6360000  86.4900000  55.1470000  89.8540000
  87.4420000  54.1070000  89.3010000  55.9260000  42.9790000  93.5490000
  56.1820000  42.8110000  92.6420000  56.7550000  43.0970000  94.0140000
  76.6980000  63.4560000  58.6590000  77.5830000  63.1320000  58.4880000
  76.7600000  64.4020000  58.5250000  40.3530000  80.3000000  68.8140000
  40.2330000  80.9880000  68.1600000  41.1400000  80.5590000  69.2940000
  74.9910000  80.6730000  63.7870000  75.5280000  81.4330000  64.0120000
  75.5050000  80.2050000  63.1280000  44.6510000  45.2070000  78.3370000
  44.8100000  45.7350000  79.1190000  43.7670000  45.4480000  78.0600000
  56.5900000  70.9620000  66.1440000  56.5400000  71.4990000  66.9350000
  57.0710000  70.1790000  66.4150000  50.1100000  83.3240000  73.3180000
  49.2780000  83.4340000  73.7790000  50.6770000  82.8810000  73.9490000
  63.9000000  33.0890000  63.7810000  62.9980000  33.3610000  63.6120000
  64.1900000  32.6950000  62.9580000  68.0520000  66.0790000  63.4790000
  67.6340000  66.9140000  63.2700000  68.9910000  66.2610000  63.4260000
  33.5260000  64.6730000  79.2170000  33.9510000  63.9060000  79.6020000
  34.2380000  65.3000000  79.0850000  51.6750000  78.2100000  93.6980000
  52.0320000  77.6030000  94.3460000  51.8740000  79.0790000  94.0470000
  70.9250000  34.8440000  59.0910000  71.1260000  34.7430000  60.0210000
  69.9980000  34.6160000  59.0190000  65.8240000  45.2560000  56.8820000
  66.2200000  45.9200000  57.4460000  65.8830000  45.6250000  56.0000000
  79.0620000  69.5100000  89.1590000  78.9860000  70.4220000  89.4360000
  78.3030000  69.0760000  89.5520000  35.0960000  83.5220000  63.8310000
  34.9800000  82.5780000  63.7330000  35.8120000  83.6130000  64.4600000
  31.4890000  55.8300000  93.6820000  31.0000000  55.3750000  92.9970000
  31.0000000  55.6500000  94.4860000  46.8370000  75.5220000  91.8320000
  46.8990000  76.3420000  92.3210000  47.7470000  75.2670000  91.6750000
  57.0820000  82.3920000  60.5890000  57.1520000  83.3200000  60.8110000
  57.9840000  82.1170000  60.4210000  80.0970000  67.2050000  78.9600000
  79.1810000  66.9300000  78.9780000  80.3380000  67.1790000  78.0330000
  79.9990000  64.2820000  61.7190000  80.6420000  63.7940000  62.2330000
  80.0510000  65.1770000  62.0570000  88.8870000  65.0440000  68.2770000
  89.0000000  65.9290000  68.6220000  88.1170000  64.7050000  68.7330000
  45.5400000  84.7690000  59.2760000  46.2930000  84.2940000  58.9260000
  45.9010000  85.6060000  59.5690000  31.0000000  41.5740000  58.4740000
  31.0560000  40.6950000  58.8490000  31.4930000  42.1260000  59.0820000
  50.9000000  70.8050000  64.7120000  50.1410000  70.7710000  64.1300000
  50.8440000  71.6650000  65.1310000  84.1380000  54.2500000  90.1410000
  83.5200000  53.6750000  90.5910000  84.1210000  55.0630000  90.6470000
  75.3650000  83.5910000  87.4920000  75.1020000  83.7010000  86.5790000
  76.2410000  83.9760000  87.5370000  72.5710000  68.0280000  73.3890000
  73.3800000  68.5390000  73.3790000  71.9130000  68.6290000  73.7400000
  62.3540000  61.0930000  84.7190000  61.7510000  61.2480000  83.9920000
  62.3750000  60.1410000  84.8150000  51.3460000  60.7030000  96.4850000
  50.7710000  61.4680000  96.4590000  52.2310000  61.0680000  96.5000000
  46.3540000  82.0310000  89.9580000  46.3900000  82.9230000  89.6130000
  47.0990000  81.9760000  90.5580000  61.4420000  82.7420000  65.9440000
  61.5080000  83.2630000  65.1440000  62.2210000  82.1860000  65.9330000
  71.8490000  41.7050000  82.6970000  72.4970000  41.0370000  82.9210000
  72.3680000  42.4730000  82.4580000  36.5690000  86.2870000  73.9860000
  36.6660000  86.9880000  73.3420000  35.8430000  86.5710000  74.5430000
  60.4650000  51.1300000  65.9690000  59.5600000  51.2930000  65.7050000
  60.3950000  50.7590000  66.8490000  86.0740000  85.2320000  56.5710000
  85.4010000  85.6450000  56.0310000  86.4690000  84.5730000  56.0000000
  54.4190000  59.5120000  79.2080000  54.3590000  58.8580000  79.9040000
  55.3140000  59.8480000  79.2700000  33.7500000  68.8140000  63.6470000
  33.6990000  68.4450000  62.7650000  34.5500000  68.4400000  64.0170000
  71.7020000  36.7510000  95.4740000  71.5760000  37.5810000  95.0140000
  71.3710000  36.9150000  96.3580000  51.1570000  54.5580000  61.4980000
  51.6020000  55.4050000  61.4500000  50.3540000  54.6800000  60.9910000
  85.1690000  61.9940000  66.7540000  84.7320000  61.6330000  65.9840000
  84.8520000  62.8950000  66.8100000  82.5810000  67.4860000  69.4180000
  82.6090000  66.6280000  69.8400000  83.1980000  67.4150000  68.6890000
  81.1360000  46.1870000  79.0110000  80.8270000  45.2810000  79.0130000
  81.9510000  46.1610000  78.5090000  88.9230000  53.1440000  94.5350000
  89.0000000  53.2760000  95.4800000  88.9950000  54.0230000  94.1630000
  82.5910000  76.3400000  65.3040000  82.5960000  75.5110000  65.7810000
  83.4650000  76.7050000  65.4460000  86.5510000  40.9550000  79.3270000
  86.8140000  41.4520000  78.5530000  86.8130000  41.5040000  80.0660000
  38.9980000  83.1650000  60.5180000  39.2630000  82.3950000  60.0160000
  39.8190000  83.6180000  60.7140000  32.5740000  65.2710000  62.1110000
  32.1110000  66.0560000  61.8190000  33.3270000  65.6040000  62.6000000
  73.1890000  46.4400000  56.0280000  73.4790000  47.3510000  56.0490000
  74.0000000  45.9310000  56.0000000  44.9390000  67.5830000  89.9790000
  43.9820000  67.6130000  89.9540000  45.1400000  66.8220000  90.5250000
  42.1450000  66.5670000  70.9030000  43.0550000  66.3750000  71.1310000
  41.6850000  65.7370000  71.0340000  47.2910000  60.2100000  56.0750000
  48.1240000  59.7440000  56.0000000  46.6400000  59.5180000  56.1990000
  44.6560000  86.2430000  80.7600000  44.2600000  85.9520000  79.9380000
  45.3370000  86.8600000  80.4920000  62.1540000  87.3080000  92.5150000
  61.6090000  88.0750000  92.6870000  62.9550000  87.4650000  93.0170000
  72.5450000  88.7810000  57.9860000  71.6060000  88.8980000  58.1260000
  72.9250000  88.8190000  58.8640000  45.5950000  36.3580000  64.9760000
  46.1000000  36.4900000  64.1730000  45.4450000  35.4130000  65.0120000
  36.4310000  41.1510000  64.3170000  37.0350000  41.4280000  63.6280000
  36.6780000  41.6770000  65.0780000  46.6740000  38.2950000  84.2890000
  46.0960000  39.0060000  84.5660000  47.3810000  38.2940000  84.9350000
  79.6310000  57.6610000  63.4790000  80.3290000  57.0720000  63.1950000
  78.8310000  57.1390000  63.4050000  79.0170000  60.9610000  61.7740000
  79.3020000  60.0470000  61.7630000  79.8300000  61.4650000  61.8210000
  69.2870000  37.5460000  85.4280000  69.3280000  36.6630000  85.7950000
  70.0400000  37.9990000  85.8090000  70.5960000  67.6550000  79.1550000
  70.7020000  68.6060000  79.1670000  69.7070000  67.5080000  79.4780000
  64.8560000  67.9200000  64.1340000  64.3270000  68.2510000  64.8600000
  65.6380000  68.4720000  64.1340000  89.0000000  72.8850000  84.6160000
  88.8550000  72.3620000  85.4040000  88.4850000  72.4460000  83.9380000
  51.6200000  36.8320000  66.4940000  52.1270000  37.6070000  66.2550000
  52.1760000  36.3640000  67.1170000  52.8540000  87.1150000  78.2910000
  53.5460000  87.7460000  78.4860000  52.8390000  86.5320000  79.0510000
  50.8460000  66.0680000  65.5660000  50.8820000  65.9800000  64.6130000
  51.4460000  66.7890000  65.7630000  47.1940000  72.3760000  74.3760000
  47.5900000  73.1360000  74.8020000  46.3150000  72.3200000  74.7540000
  87.3930000  49.9200000  73.7560000  86.8010000  50.5970000  74.0820000
  87.1710000  49.8340000  72.8280000  46.5790000  38.9740000  60.2950000
  46.9660000  39.8440000  60.3900000  45.9710000  39.0610000  59.5600000
  68.2090000  49.9770000  96.5000000  68.1310000  50.9310000  96.4840000
  69.1520000  49.8130000  96.4830000  46.2220000  86.2690000  72.0410000
  47.0950000  86.5960000  72.2580000  45.6830000  87.0560000  71.9630000
  81.2730000  77.8180000  96.4950000  81.5870000  78.7220000  96.5000000
  82.0700000  77.2870000  96.4900000  58.8070000  78.9630000  96.3760000
  59.7550000  78.9800000  96.5000000  58.5810000  78.0320000  96.3820000
  84.2010000  77.0150000  70.6010000  83.9610000  76.1610000  70.9610000
  83.3650000  77.4310000  70.3910000  86.6720000  75.3850000  69.7870000
  86.3000000  75.1460000  70.6360000  86.3910000  74.6850000  69.1960000
  54.1490000  78.4650000  67.2260000  53.1970000  78.5070000  67.3180000
  54.4810000  79.0710000  67.8890000  45.4640000  42.4510000  60.9330000
  44.8040000  41.7950000  60.7080000  46.1310000  41.9650000  61.4170000
  46.3280000  31.0330000  65.4730000  46.3830000  31.0000000  64.5180000
  45.3890000  31.0220000  65.6600000  61.5460000  64.1510000  60.6050000
  61.7890000  65.0760000  60.6440000  60.5900000  64.1560000  60.5500000
  41.3030000  81.4820000  94.7080000  41.3610000  82.2890000  95.2190000
  42.1340000  81.4380000  94.2340000  61.1890000  76.1970000  60.3010000
  61.1520000  75.6080000  61.0540000  60.3290000  76.6190000  60.2840000
  64.6540000  88.9440000  60.9090000  65.6060000  89.0000000  60.8270000
  64.3320000  89.0000000  60.0090000  40.4590000  54.1090000  69.2890000
  40.8270000  53.8470000  68.4450000  40.1670000  53.2880000  69.6880000
  43.7140000  81.8810000  74.2460000  43.5780000  82.5840000  73.6110000
  44.2950000  82.2630000  74.9050000  53.4970000  88.5640000  70.3420000
  53.4660000  89.0000000  71.1930000  54.2090000  89.0000000  69.8730000
  53.5190000  60.1330000  65.2080000  52.8350000  59.6150000  64.7830000
  53.1150000  60.9880000  65.3580000  80.9720000  60.5450000  63.8460000
  81.1320000  59.6610000  63.5180000  81.8410000  60.8780000  64.0720000
  36.7220000  65.7810000  68.5710000  37.5390000  65.6820000  69.0600000
  36.8730000  66.5360000  68.0020000  57.1500000  89.0000000  86.0330000
  57.4770000  88.7230000  85.1770000  57.9240000  88.9980000  86.5970000
  74.2540000  46.0630000  89.3740000  73.8850000  45.5140000  90.0660000
  75.0100000  46.4870000  89.7820000  76.2460000  45.9860000  87.6030000
  76.1050000  45.0610000  87.8030000  76.2450000  46.0280000  86.6460000
  64.9010000  74.2030000  86.0540000  64.2740000  74.9260000  86.0690000
  65.7570000  74.6280000  85.9980000  81.3590000  70.2460000  77.1780000
  80.9040000  69.4120000  77.0630000  82.2880000  70.0170000  77.1670000
  62.1800000  83.6720000  56.0280000  63.1020000  83.9250000  56.0760000
  61.7050000  84.5030000  56.0000000  56.8110000  47.5670000  76.3250000
  57.1340000  47.4420000  75.4330000  56.4590000  48.4570000  76.3310000
  78.0880000  61.5490000  70.5070000  77.9320000  60.6660000  70.1710000
  78.2450000  62.0790000  69.7260000  41.4530000  84.9550000  83.4690000
  41.5790000  84.0740000  83.1180000  41.2590000  84.8200000  84.3970000
  48.1030000  80.0520000  56.7260000  47.4580000  80.1500000  56.0260000
  47.5950000  79.7460000  57.4780000  69.7150000  55.8890000  93.9400000
  70.5190000  56.2120000  94.3470000  69.7200000  56.2720000  93.0620000
  59.5030000  74.5640000  78.1150000  60.3460000  74.6590000  77.6710000
  59.7220000  74.5540000  79.0470000  55.4980000  85.9720000  79.3640000
  55.2090000  85.8800000  78.4560000  56.2420000  86.5730000  79.3190000
  55.1570000  67.3290000  89.3110000  54.6730000  66.5910000  89.6820000
  54.6990000  68.1040000  89.6360000  34.6970000  47.9320000  75.4010000
  34.9050000  47.0030000  75.3070000  33.7440000  47.9570000  75.4950000
  34.2590000  88.9490000  62.8880000  35.1860000  88.9840000  62.6520000
  34.0980000  88.0280000  63.0930000  70.3600000  84.2700000  67.4030000
  70.2380000  84.0110000  66.4900000  69.4740000  84.3040000  67.7630000
  41.6210000  88.9290000  64.7500000  40.8140000  89.0000000  64.2400000
  41.8850000  88.0140000  64.6560000  61.7150000  76.9430000  69.4290000
  62.3060000  77.4510000  68.8730000  61.0590000  77.5760000  69.7240000
  38.9130000  31.5780000  56.3430000  39.4870000  31.0000000  56.8440000
  38.2300000  31.0000000  56.0000000  58.4950000  57.1290000  70.4290000
  58.8270000  56.6280000  69.6840000  57.5760000  56.8690000  70.5020000
  65.8020000  31.4650000  85.2370000  66.6380000  31.0000000  85.2200000
  65.2550000  31.0000000  84.6040000  39.4400000  59.7170000  73.1530000
  39.6390000  60.3910000  72.5040000  40.2270000  59.1720000  73.1830000
  34.3030000  37.3250000  56.2540000  33.7980000  36.5400000  56.0480000
  33.7330000  38.0510000  56.0000000  75.1940000  36.3970000  64.8260000
  75.5740000  37.1370000  64.3530000  75.0110000  36.7400000  65.7010000
  87.1460000  50.9460000  81.6900000  86.3030000  50.6540000  81.3440000
  87.5130000  50.1700000  82.1140000  82.4300000  43.1740000  58.5300000
  83.2250000  42.6650000  58.6910000  82.7460000  44.0020000  58.1660000
  79.0740000  65.6750000  81.1640000  79.8920000  65.3560000  80.7850000
  79.2870000  66.5480000  81.4940000  35.9620000  86.9520000  80.4400000
  36.3070000  86.1580000  80.8490000  35.3220000  86.6340000  79.8020000
  63.8330000  70.1780000  72.8720000  63.4610000  70.9940000  72.5370000
  63.5710000  69.5140000  72.2350000  71.6360000  50.9180000  88.2920000
  72.3160000  50.3370000  88.6320000  71.0380000  50.3370000  87.8200000
  59.7450000  32.3190000  85.5210000  60.4120000  32.5640000  86.1620000
  59.7750000  33.0150000  84.8650000  51.6250000  53.4880000  72.5400000
  52.4710000  53.7380000  72.1700000  51.6940000  52.5430000  72.6810000
  85.6070000  53.2990000  68.6010000  86.5180000  53.0340000  68.4720000
  85.1120000  52.4810000  68.5670000  53.9370000  69.8200000  61.8900000
  54.6600000  69.2450000  62.1420000  53.1490000  69.3320000  62.1290000
  43.2650000  72.6660000  77.9990000  43.0630000  73.5740000  77.7750000
  43.8210000  72.3600000  77.2810000  61.6880000  38.7440000  89.8450000
  62.5670000  38.5660000  90.1800000  61.8270000  39.3430000  89.1110000
  82.6250000  88.9850000  56.2570000  82.4550000  88.0780000  56.0030000
  83.5540000  89.0000000  56.4860000  52.5970000  43.1780000  77.3910000
  52.3010000  44.0030000  77.7770000  53.4650000  43.0340000  77.7690000
  59.7580000  39.2470000  77.7530000  60.5730000  39.4000000  78.2310000
  59.3870000  40.1210000  77.6270000  88.9650000  86.0700000  68.4480000
  88.0350000  86.0270000  68.6670000  89.0000000  85.8780000  67.5110000
  73.7350000  43.4270000  78.7500000  73.2840000  42.8620000  78.1220000
  74.5580000  42.9730000  78.9340000  59.0030000  68.3170000  93.2090000
  59.5600000  68.9000000  92.6950000  58.8330000  67.5740000  92.6300000
  53.3030000  43.8810000  69.7860000  53.7460000  43.4390000  70.5100000
  52.5720000  43.3030000  69.5640000  47.4690000  31.2470000  80.9930000
  46.6110000  31.0260000  81.3550000  48.0900000  31.0000000  81.6790000
  72.8150000  70.8230000  92.4770000  73.6710000  70.5330000  92.1630000
  72.2320000  70.0840000  92.3020000  41.2090000  34.7430000  68.6740000
  40.4930000  34.1740000  68.9540000  41.8780000  34.1420000  68.3440000
  67.4520000  71.8450000  85.1400000  67.2680000  70.9130000  85.0210000
  66.5900000  72.2620000  85.1370000  44.7500000  59.3850000  72.8550000
  44.4580000  59.6050000  73.7390000  44.1540000  58.6910000  72.5710000
  42.5020000  51.0380000  74.5380000  43.3440000  50.7480000  74.1860000
  42.6460000  51.9540000  74.7780000  45.6940000  80.6440000  94.3750000
  44.7750000  80.4920000  94.1580000  45.7200000  81.5450000  94.6960000
  84.2000000  84.3120000  59.5980000  83.5010000  83.6940000  59.3860000
  84.3180000  84.2250000  60.5440000  36.6170000  51.2500000  86.8410000
  37.1640000  50.5520000  86.4830000  37.1750000  52.0280000  86.8200000
  63.9900000  56.6690000  81.1140000  63.9570000  56.0950000  81.8790000
  64.8810000  56.5700000  80.7790000  66.0450000  33.1330000  73.2980000
  65.7200000  33.3810000  74.1630000  65.4330000  33.5430000  72.6860000
  89.0000000  31.3350000  65.3780000  88.9340000  31.0080000  66.2740000
  88.2160000  31.0000000  64.9420000  78.7330000  70.7350000  56.0000000
  77.9740000  71.3190000  56.0160000  79.4870000  71.3200000  56.0690000
  79.1560000  49.3520000  64.4660000  78.6760000  49.5440000  65.2710000
  78.8170000  49.9810000  63.8290000  76.4340000  88.9460000  89.3090000
  77.2790000  89.0000000  89.7530000  75.7880000  88.9990000  90.0140000
  71.0750000  54.6740000  65.2980000  70.4980000  54.6860000  64.5350000
  71.5310000  55.5160000  65.2670000  74.6020000  88.9820000  69.0690000
  74.6860000  88.9950000  70.0220000  73.7890000  88.5040000  68.9060000
  58.3850000  50.0410000  76.5290000  58.8760000  49.4390000  75.9690000
  59.0540000  50.6060000  76.9180000  56.5390000  44.3460000  68.2330000
  55.6830000  43.9210000  68.2860000  56.4200000  45.0470000  67.5920000
  71.3970000  83.5990000  79.5980000  71.0670000  83.3170000  80.4510000
  71.4400000  82.7950000  79.0800000  76.5030000  83.8540000  69.2550000
  75.7060000  84.3690000  69.3740000  76.2010000  82.9450000  69.2390000
  31.0000000  81.3700000  81.3070000  31.0330000  81.7580000  82.1810000
  31.2690000  82.0770000  80.7200000  64.8770000  59.6950000  87.4220000
  64.8440000  58.9080000  87.9660000  64.6060000  60.4030000  88.0080000
  41.9810000  44.4430000  90.3860000  41.7420000  45.0430000  89.6790000
  41.1460000  44.1990000  90.7860000  34.2790000  88.1150000  71.6530000
  34.5540000  87.2020000  71.5790000  35.0960000  88.6130000  71.6470000
  35.9700000  76.1840000  77.0620000  35.5560000  75.5470000  77.6440000
  36.4850000  76.7430000  77.6440000  73.0270000  83.0630000  56.9430000
  73.1010000  82.1610000  57.2550000  72.8840000  82.9800000  56.0000000
  76.4890000  48.1000000  70.0940000  76.2930000  47.4760000  69.3950000
  77.0710000  47.6220000  70.6850000  60.3140000  44.6890000  78.2800000
  59.6540000  44.6020000  78.9680000  60.6330000  45.5870000  78.3660000
  78.4540000  79.8660000  74.6330000  79.0390000  79.1120000  74.5690000
  79.0210000  80.6240000  74.4840000  41.6020000  75.7730000  82.1200000
  40.7610000  76.0000000  81.7240000  41.3900000  75.5620000  83.0300000
  65.4260000  31.0000000  58.2580000  65.7320000  31.0760000  59.1620000
  66.2260000  31.0160000  57.7320000  63.6250000  69.3130000  86.5930000
  64.4580000  69.7310000  86.8110000  63.4720000  68.6950000  87.3080000
  68.7010000  75.5170000  95.6910000  69.2790000  76.0640000  95.1590000
  68.3870000  76.1010000  96.3820000  53.9720000  86.5010000  89.3730000
  54.9240000  86.4500000  89.2930000  53.8170000  86.6630000  90.3040000
  88.4220000  65.8660000  59.1570000  89.0000000  65.1810000  59.4940000
  89.0000000  66.6130000  59.0020000  83.6560000  83.3720000  72.3230000
  83.9160000  84.2490000  72.0430000  83.1150000  83.0410000  71.6050000
  84.6090000  41.0790000  68.4900000  85.4460000  40.6250000  68.3980000
  84.8310000  41.9080000  68.9160000  77.2110000  43.4770000  79.2380000
  77.3520000  44.4220000  79.1730000  78.0900000  43.1110000  79.3430000
  69.3240000  36.1620000  62.2600000  69.0320000  35.9930000  61.3640000
  70.1230000  35.6440000  62.3530000  88.4870000  76.1540000  76.4950000
  88.9960000  75.6740000  75.8410000  88.9850000  76.9580000  76.6430000
  31.6060000  39.3750000  56.1060000  31.0520000  38.6010000  56.0000000
  31.0000000  40.1140000  56.0440000  51.6890000  63.3260000  58.7230000
  50.7360000  63.3830000  58.6550000  51.9800000  63.1150000  57.8350000
  45.2980000  52.5820000  67.3910000  45.3760000  51.6480000  67.1950000
  45.3330000  52.6300000  68.3470000  65.1350000  69.6710000  76.2450000
  66.0880000  69.7180000  76.1700000  64.8560000  69.1950000  75.4620000
  53.0900000  45.4140000  87.5270000  52.7990000  46.3140000  87.6690000
  53.9610000  45.3780000  87.9210000  38.6380000  42.4640000  77.6780000
  38.2370000  43.3310000  77.7410000  39.5020000  42.6260000  77.2980000
  70.3760000  84.3900000  63.2730000  70.0730000  83.6820000  63.8410000
  70.5320000  85.1240000  63.8680000  72.3370000  38.2190000  77.7980000
  71.9120000  38.4680000  78.6180000  71.6140000  38.0170000  77.2040000
  56.5270000  48.6300000  59.0210000  56.3900000  47.6930000  58.8800000
  56.0290000  49.0530000  58.3220000  52.6470000  53.7650000  94.2290000
  53.0420000  54.6200000  94.0620000  52.3360000  53.4720000  93.3720000
  56.4650000  49.1600000  73.1730000  56.7680000  49.9150000  73.6780000
  55.5490000  49.0510000  73.4310000  84.7360000  59.9390000  79.3580000
  84.8000000  59.1570000  78.8100000  84.6210000  59.6010000  80.2460000
  39.9840000  55.3910000  58.3350000  40.3910000  54.6100000  57.9630000
  39.2910000  55.6200000  57.7140000  74.4920000  31.0000000  61.3810000
  73.5970000  31.0480000  61.0460000  74.8840000  31.8400000  61.1390000
  86.4390000  49.4010000  59.9750000  85.5560000  49.2840000  59.6260000
  86.6210000  50.3340000  59.8590000  78.7770000  88.4740000  95.1180000
  78.3620000  88.9740000  94.4150000  79.5360000  89.0000000  95.3700000
  86.9650000  62.9140000  71.2360000  86.8770000  63.7870000  71.6190000
  86.5550000  62.3290000  71.8740000  76.9780000  52.5430000  74.5790000
  77.0980000  52.0480000  73.7690000  77.5260000  52.0900000  75.2210000
  86.0830000  52.5040000  71.8450000  86.4240000  53.0470000  71.1350000
  86.7520000  52.5560000  72.5290000  34.1540000  88.1560000  90.4200000
  35.0770000  88.2410000  90.1840000  34.0610000  87.2470000  90.7050000
  87.2220000  31.0090000  59.0050000  86.4820000  31.0000000  59.6100000
  87.9950000  31.0000000  59.5700000  71.5040000  66.7730000  62.3160000
  72.0430000  67.5120000  62.6010000  72.1360000  66.1010000  62.0580000
  34.1240000  57.2150000  87.3340000  34.9990000  57.5790000  87.2000000
  33.5340000  57.8580000  86.9380000  61.8740000  37.3590000  87.4870000
  61.0520000  37.2310000  87.9600000  62.5540000  37.1420000  88.1250000
  65.4410000  46.0920000  67.5360000  64.7490000  46.1280000  68.1960000
  65.0110000  46.3550000  66.7220000  43.4790000  47.5030000  56.0000000
  42.9170000  46.7290000  56.0000000  44.3700000  47.1530000  56.0000000
  44.1960000  40.8870000  68.5980000  45.0320000  40.4540000  68.7690000
  43.5370000  40.2150000  68.7740000  83.4580000  39.7850000  60.8230000
  84.2840000  40.2640000  60.7590000  83.6810000  38.8870000  60.5780000
  60.8450000  32.3720000  64.4190000  60.9430000  31.6080000  63.8510000
  60.0190000  32.7710000  64.1440000  71.2870000  35.9920000  71.0040000
  71.0600000  35.5100000  70.2090000  70.4470000  36.1660000  71.4280000
  34.2780000  44.9280000  56.0800000  34.5560000  44.7710000  56.9830000
  33.9620000  45.8310000  56.0790000  51.8880000  43.4330000  60.9840000
  51.0540000  43.8750000  60.8290000  52.5440000  44.1280000  60.9240000
  52.8350000  80.1540000  61.4160000  52.7950000  80.3720000  62.3470000
  52.0700000  80.5860000  61.0350000  65.5880000  53.4920000  92.5740000
  65.5520000  53.2790000  91.6410000  64.7330000  53.8790000  92.7640000
  40.2560000  50.6310000  60.6890000  39.8510000  49.8520000  60.3080000
  40.0410000  51.3370000  60.0780000  77.8190000  74.8120000  62.8870000
  77.2770000  75.3820000  62.3420000  78.7150000  74.9840000  62.5970000
  86.3380000  56.6640000  79.3930000  86.8520000  56.7100000  78.5870000
  86.6720000  57.3820000  79.9320000  34.5030000  41.0920000  93.5570000
  34.0230000  41.7940000  93.9960000  35.2090000  41.5390000  93.0900000
  61.2220000  79.5500000  58.9730000  61.4800000  78.6530000  58.7590000
  60.2960000  79.4840000  59.2050000  43.4490000  50.8650000  83.6670000
  42.7770000  51.4800000  83.3730000  42.9870000  50.2710000  84.2610000
  83.2440000  62.0160000  79.8470000  83.5640000  62.6890000  79.2470000
  82.6950000  61.4510000  79.3030000  75.5830000  35.9740000  79.5560000
  76.1320000  35.8030000  78.7910000  75.1850000  36.8260000  79.3790000
  47.1490000  88.9700000  67.7330000  48.1060000  89.0000000  67.7130000
  46.8900000  88.9570000  66.8110000  36.3690000  70.2550000  64.0580000
  37.0520000  70.9230000  64.1100000  36.8470000  69.4280000  63.9820000
  51.4610000  39.9450000  93.4950000  51.9010000  39.9690000  94.3440000
  51.7550000  39.1260000  93.0950000  41.1680000  38.0450000  93.8270000
  40.4170000  37.7190000  94.3230000  40.8070000  38.7400000  93.2760000
  41.6990000  73.8030000  60.9840000  41.6190000  73.0170000  60.4440000
  40.8070000  73.9800000  61.2830000  83.5450000  43.1740000  85.2050000
  83.1560000  42.3040000  85.1190000  83.6360000  43.4860000  84.3040000
  80.9810000  81.0710000  58.5080000  81.6180000  80.4830000  58.1030000
  80.1740000  80.5570000  58.5550000  63.9910000  89.0000000  83.8980000
  64.1400000  88.9130000  82.9560000  64.8660000  88.9640000  84.2840000
  58.1470000  49.3930000  56.1170000  57.8010000  48.5010000  56.0770000
  59.0920000  49.2890000  56.0000000  55.9910000  60.5170000  64.7490000
  56.3930000  59.6620000  64.9000000  56.5660000  60.9440000  64.1130000
  39.2990000  41.2840000  60.4170000  40.0550000  41.8690000  60.4650000
  38.9530000  41.2650000  61.3090000  40.0710000  80.2910000  65.6010000
  39.8030000  79.9010000  64.7690000  41.0170000  80.4150000  65.5150000
  33.4710000  73.1070000  60.5970000  33.3360000  73.2400000  61.5350000
  33.5170000  73.9920000  60.2330000  62.3350000  46.2240000  58.1640000
  61.7080000  46.7920000  58.6130000  63.1120000  46.7720000  58.0470000
  66.0020000  34.0780000  95.8420000  65.7350000  33.3510000  96.4040000
  66.1200000  33.6830000  94.9780000  57.8990000  36.5530000  63.2790000
  57.2330000  37.1080000  63.6850000  58.7320000  36.9480000  63.5390000
  68.2900000  48.0880000  69.2410000  67.8040000  48.2950000  70.0390000
  67.8020000  47.3670000  68.8420000  88.8910000  79.3190000  75.8250000
  89.0000000  79.9020000  75.0730000  88.2550000  79.7660000  76.3840000
  39.6850000  85.8380000  71.8610000  40.6010000  86.1060000  71.9270000
  39.3400000  85.9400000  72.7490000  37.4990000  84.1950000  71.4070000
  36.6110000  84.4120000  71.6930000  37.6160000  84.6900000  70.5950000
  83.7840000  43.6510000  77.9380000  83.4450000  44.2470000  77.2710000
  84.5310000  43.2210000  77.5190000  79.2640000  86.0290000  95.3940000
  79.0490000  86.2840000  96.2910000  78.4200000  86.0060000  94.9420000
  76.3120000  76.8700000  79.9260000  75.4790000  76.9620000  80.3890000
  76.9400000  77.3530000  80.4630000  31.0400000  31.7860000  72.4900000
  31.0000000  31.0000000  71.9460000  31.4910000  32.4320000  71.9460000
  65.9450000  47.8570000  76.1050000  66.0460000  48.0770000  75.1790000
  66.8250000  47.9470000  76.4710000  46.7400000  46.3860000  56.2450000
  46.5460000  45.9290000  57.0630000  46.8160000  47.3070000  56.4950000
  45.2070000  50.1280000  56.0000000  45.4760000  50.1150000  56.9180000
  44.3710000  50.5950000  56.0010000  60.0550000  52.8610000  96.2920000
  59.1300000  52.9920000  96.5000000  60.0600000  52.6130000  95.3670000
  50.2100000  83.4980000  95.6550000  50.8390000  84.1840000  95.8780000
  49.8810000  83.1910000  96.5000000  74.2930000  78.8870000  65.7090000
  73.9930000  78.6330000  64.8360000  73.8290000  78.2970000  66.3030000
  63.3120000  31.1420000  65.8410000  63.1230000  31.0000000  64.9140000
  62.5310000  31.5800000  66.1810000  50.2300000  44.7980000  89.2170000
  50.0210000  45.5530000  88.6680000  51.0030000  44.4090000  88.8060000
  63.8110000  62.4330000  83.0970000  63.3530000  63.1220000  83.5780000
  63.2800000  62.2930000  82.3130000  38.5410000  46.0700000  66.4430000
  37.7190000  46.4080000  66.0890000  39.2220000  46.5130000  65.9360000
  31.0530000  78.9010000  67.2940000  31.9910000  78.7970000  67.1360000
  31.0000000  79.4900000  68.0470000  75.0780000  54.2580000  58.9500000
  76.0290000  54.3110000  58.8540000  74.7920000  55.1700000  59.0130000
  72.8290000  69.4940000  94.7270000  73.7350000  69.7340000  94.5310000
  72.3900000  70.3280000  94.8910000  59.7660000  66.5030000  60.2900000
  58.9380000  66.9640000  60.1590000  60.4030000  67.1970000  60.4610000
  71.9510000  53.0840000  89.7370000  72.7990000  52.6420000  89.6890000
  72.1360000  53.9870000  89.4770000  81.6290000  75.8670000  68.9960000
  80.8380000  76.0020000  68.4750000  82.3350000  76.2260000  68.4580000
  35.7070000  59.1390000  66.7700000  35.4060000  59.8680000  67.3110000
  36.6340000  59.0410000  66.9920000  50.9150000  80.8050000  56.0170000
  50.1840000  81.4210000  56.0000000  50.5010000  79.9410000  56.0300000
  77.0910000  41.5820000  96.3770000  76.1620000  41.7890000  96.4710000
  77.5270000  42.4350000  96.3680000  48.8980000  63.4390000  89.7410000
  48.1430000  62.8520000  89.7350000  48.5570000  64.2730000  89.4150000
  34.7480000  88.0630000  56.2550000  35.4750000  87.4950000  56.0000000
  35.0680000  88.9500000  56.0880000  37.9290000  37.1500000  56.2550000
  37.1830000  37.6940000  56.0020000  38.6970000  37.6710000  56.0190000
  47.0780000  63.4970000  59.4310000  47.9050000  63.8190000  59.0720000
  46.4040000  63.9370000  58.9130000  56.7670000  89.0000000  89.3800000
  57.6390000  88.7590000  89.0690000  56.5640000  88.3510000  90.0540000
  81.1170000  44.0410000  91.4940000  81.9380000  43.7040000  91.1370000
  81.3730000  44.8140000  91.9980000  34.1060000  34.4580000  88.3190000
  34.3290000  35.1730000  88.9140000  33.6540000  34.8830000  87.5900000
  73.5030000  38.6990000  62.9510000  72.7120000  38.3170000  63.3310000
  73.1920000  39.1760000  62.1810000  61.0300000  39.5840000  71.1900000
  61.2980000  38.7400000  71.5540000  61.7790000  39.8670000  70.6650000
  78.0180000  72.8620000  65.8770000  78.9140000  72.5380000  65.9690000
  78.1190000  73.7630000  65.5680000  59.2780000  59.4870000  91.9580000
  58.9820000  58.8640000  92.6230000  60.2340000  59.4400000  91.9950000
  41.4160000  46.9230000  82.8530000  42.3010000  46.6240000  82.6470000
  41.5180000  47.4460000  83.6490000  53.1910000  77.5470000  61.3760000
  52.5470000  77.6980000  60.6850000  52.6860000  77.5860000  62.1890000
  77.0320000  62.6780000  73.5560000  77.0510000  61.9720000  74.2030000
  76.6680000  62.2720000  72.7690000  35.2560000  79.9030000  95.1110000
  35.6560000  79.3670000  95.7950000  35.9400000  80.5250000  94.8620000
  36.4210000  35.9890000  72.3750000  36.3750000  36.9310000  72.5370000
  37.3180000  35.8400000  72.0760000  56.3120000  85.0570000  91.0160000
  56.5990000  85.9670000  91.0850000  57.0720000  84.5430000  91.2900000
  60.5620000  40.9360000  96.4040000  59.7790000  40.7210000  95.8990000
  60.5320000  41.8890000  96.5000000  71.2580000  81.4160000  76.0660000
  71.0380000  81.0350000  76.9160000  70.5460000  81.1390000  75.4880000
  58.0540000  34.2030000  76.1460000  57.4750000  34.7130000  76.7120000
  57.4620000  33.7380000  75.5540000  46.1640000  47.3380000  68.8890000
  45.5690000  47.3150000  68.1400000  45.6380000  47.0190000  69.6230000
  47.4270000  75.8580000  82.8640000  47.8280000  76.2430000  82.0850000
  48.1690000  75.5930000  83.4090000  51.4240000  45.4740000  96.4990000
  51.5510000  46.4230000  96.4990000  52.3120000  45.1140000  96.4960000
  81.7530000  67.0680000  93.4290000  81.6090000  67.7020000  94.1310000
  81.7130000  67.5870000  92.6250000  33.6310000  53.2880000  62.9060000
  33.3880000  52.4660000  62.4810000  34.5120000  53.1310000  63.2470000
  77.7690000  79.8150000  61.4870000  77.1060000  79.3450000  60.9810000
  78.5830000  79.6780000  61.0020000  67.5630000  77.6750000  82.2320000
  67.6510000  77.9190000  81.3110000  67.5800000  76.7180000  82.2290000
  41.2620000  59.7840000  63.7980000  40.8300000  59.5560000  62.9750000
  40.6960000  60.4490000  64.1900000  40.6850000  47.5710000  73.6960000
  41.6200000  47.6800000  73.8670000  40.3540000  48.4640000  73.5980000
  76.2200000  41.2110000  89.8110000  76.5290000  40.4870000  90.3550000
  75.6410000  40.7990000  89.1700000  65.7390000  60.1030000  60.9480000
  66.6060000  59.6970000  60.9600000  65.1560000  59.4340000  61.3070000
  55.7280000  80.1050000  75.7960000  55.9600000  80.7300000  76.4840000
  56.4490000  80.1600000  75.1690000  82.5760000  64.1780000  87.7360000
  82.8140000  65.0970000  87.6200000  82.4160000  63.8580000  86.8470000
  71.4710000  77.4920000  66.1080000  71.4640000  77.5770000  65.1550000
  70.5790000  77.2220000  66.3310000  36.2540000  31.0320000  68.8820000
  37.2020000  31.0300000  68.7520000  35.8900000  31.0000000  67.9960000
  36.6820000  79.3870000  66.2490000  36.5920000  78.7470000  66.9550000
  37.2640000  80.0580000  66.6070000  64.8210000  57.4350000  64.2740000
  64.6930000  57.7460000  63.3780000  64.7850000  58.2270000  64.8110000
  82.4170000  48.4550000  61.5650000  81.7940000  48.1350000  60.9130000
  82.9050000  49.1430000  61.1120000  73.4390000  46.2440000  66.3250000
  72.9850000  46.8240000  65.7140000  72.7790000  46.0240000  66.9830000
  39.4960000  43.3990000  72.4950000  38.6240000  43.2660000  72.8660000
  39.3380000  43.5710000  71.5660000  59.4430000  80.9520000  71.6980000
  59.1890000  80.2870000  72.3380000  59.7980000  80.4530000  70.9620000
  72.8230000  42.9720000  85.5580000  72.7990000  43.8630000  85.9070000
  72.1290000  42.9540000  84.8990000  66.7760000  46.6720000  60.0000000
  66.5110000  46.9610000  60.8730000  66.5840000  45.7340000  59.9890000
  83.8540000  79.2040000  81.0100000  83.1070000  79.8030000  81.0160000
  84.0280000  79.0290000  81.9350000  67.7990000  73.6270000  61.5050000
  68.1610000  72.7420000  61.4610000  68.5120000  74.1610000  61.8570000
  53.4490000  77.6200000  69.6470000  54.1050000  77.0200000  69.2930000
  53.7240000  77.7680000  70.5520000  78.0430000  40.9090000  57.8130000
  78.9830000  40.7510000  57.8990000  77.9640000  41.8610000  57.7490000
  33.3620000  79.9010000  59.0940000  33.9180000  80.6690000  59.2300000
  33.8770000  79.1690000  59.4330000  52.2170000  54.7420000  86.3140000
  51.9240000  55.6430000  86.1760000  53.1300000  54.8260000  86.5900000
  34.0780000  69.1370000  56.7750000  33.4500000  69.3590000  57.4620000
  34.8060000  69.7440000  56.9100000  40.4250000  44.9460000  75.2180000
  40.2420000  45.2210000  76.1160000  39.6420000  44.4640000  74.9500000
  80.5590000  79.7500000  78.8100000  79.7760000  80.2950000  78.7290000
  80.3410000  78.9460000  78.3380000  78.6860000  51.7840000  84.8400000
  79.4990000  51.4220000  84.4880000  78.0080000  51.4840000  84.2340000
  77.4870000  68.4270000  58.0250000  76.7210000  68.8470000  58.4170000
  77.2120000  67.5230000  57.8700000  72.3090000  53.0170000  61.4280000
  72.8580000  52.2410000  61.5370000  71.4340000  52.6700000  61.2540000
  31.5550000  46.4290000  95.2760000  31.0000000  47.1430000  95.5910000
  31.0000000  45.9470000  94.6620000  63.8710000  86.5630000  90.2800000
  62.9300000  86.3960000  90.3200000  64.2010000  86.2870000  91.1350000
  40.0610000  84.3640000  58.1490000  39.1100000  84.2870000  58.0700000
  40.1980000  85.2110000  58.5740000  85.4240000  33.2510000  60.6920000
  85.6890000  32.6100000  61.3510000  85.8040000  34.0760000  60.9940000
  65.0840000  71.4530000  90.7370000  65.1890000  70.7860000  91.4150000
  65.1250000  70.9670000  89.9130000  62.9450000  55.4530000  73.5240000
  62.6990000  54.8870000  72.7930000  63.9020000  55.4520000  73.5160000
  82.7630000  82.6490000  65.5640000  82.3640000  83.0870000  64.8120000
  83.6730000  82.9450000  65.5590000  75.5240000  39.0840000  77.3200000
  74.7880000  38.7510000  77.8330000  76.0750000  38.3170000  77.1650000
  49.4640000  46.2660000  82.2290000  48.7100000  45.7790000  81.8970000
  49.2830000  46.3810000  83.1630000  82.6560000  67.7680000  66.2140000
  83.4240000  67.7550000  65.6430000  82.4200000  68.6940000  66.2770000
  55.6280000  31.3320000  91.7120000  55.0570000  32.0930000  91.6130000
  55.4350000  31.0000000  92.5890000  55.1430000  57.4830000  83.0630000
  54.6680000  57.7240000  83.8590000  54.4570000  57.2720000  82.4290000
  65.0180000  88.5410000  94.1270000  64.6020000  88.8880000  94.9160000
  65.8570000  89.0000000  94.0760000  66.3750000  66.0590000  58.9330000
  67.0950000  65.4690000  59.1530000  66.7800000  66.7420000  58.3970000
  41.0960000  44.4160000  78.9560000  41.6190000  45.1310000  79.3190000
  40.3250000  44.8460000  78.5860000  43.3280000  71.9800000  91.5110000
  44.0680000  72.4180000  91.9300000  42.7660000  72.6950000  91.2090000
  46.1970000  77.9900000  60.0150000  46.6200000  77.4080000  60.6460000
  46.8260000  78.7000000  59.8850000  31.0510000  50.7070000  64.5690000
  31.2020000  51.6500000  64.6220000  31.9280000  50.3240000  64.5510000
  49.4700000  46.7210000  90.9210000  49.7680000  47.5800000  90.6220000
  48.5340000  46.7080000  90.7170000  83.9710000  78.5000000  62.5410000
  83.4790000  79.2940000  62.7500000  83.9110000  77.9650000  63.3340000
  49.1050000  34.9050000  61.8350000  48.4630000  34.3640000  62.2960000
  49.3710000  35.5630000  62.4770000  49.4940000  75.4510000  72.1060000
  50.4250000  75.3720000  72.3090000  49.1050000  75.8160000  72.9020000
  70.9600000  74.3350000  64.1840000  70.5920000  74.2140000  63.3090000
  70.9200000  75.2800000  64.3330000  72.7450000  48.9620000  85.3670000
  72.4600000  48.9510000  86.2800000  73.4240000  48.2880000  85.3200000
  34.0010000  84.7110000  73.0740000  34.1810000  84.7940000  72.1370000
  34.8560000  84.5410000  73.4690000  38.3690000  82.8600000  73.6620000
  38.4270000  83.8150000  73.6970000  37.4360000  82.6800000  73.5480000
  48.7410000  31.7800000  67.9020000  48.2750000  32.4130000  67.3570000
  48.1860000  31.0000000  67.8930000  82.0810000  31.8790000  68.3350000
  81.2280000  32.1510000  67.9950000  82.2120000  31.0000000  67.9780000
  58.0740000  45.8230000  57.8900000  58.8860000  46.2930000  58.0780000
  57.7560000  46.2090000  57.0740000  48.6970000  35.6680000  59.4780000
  47.8830000  35.9270000  59.9080000  48.4570000  35.5540000  58.5580000
  49.4010000  37.9230000  89.2280000  48.5660000  38.3870000  89.1860000
  50.0620000  38.6160000  89.2250000  64.8130000  63.0410000  74.7670000
  65.0300000  62.5670000  73.9640000  64.1630000  62.4900000  75.2030000
  53.3630000  56.0280000  77.4420000  53.5220000  56.7130000  78.0920000
  52.9900000  55.3030000  77.9440000  70.0380000  67.2420000  71.7050000
  69.5200000  66.4380000  71.7290000  69.3870000  67.9450000  71.6690000
  67.5700000  70.4040000  62.4300000  67.9970000  69.9800000  61.6860000
  67.5810000  69.7420000  63.1220000  61.0710000  44.6330000  82.7330000
  60.7770000  45.0300000  83.5530000  60.2760000  44.2640000  82.3470000
  52.5750000  83.9380000  79.2730000  53.5110000  84.1360000  79.2940000
  52.5160000  83.1060000  78.8040000  84.2790000  66.2840000  90.3980000
  84.1760000  66.4490000  89.4610000  83.6620000  66.8850000  90.8170000
  52.2200000  55.5570000  80.8500000  53.1440000  55.6160000  81.0890000
  52.1200000  56.1710000  80.1230000  80.0930000  74.2860000  96.5000000
  79.3230000  74.5890000  96.0190000  80.1830000  73.3650000  96.2540000
  60.8760000  54.4600000  87.8110000  60.3410000  54.3310000  88.5940000
  61.7790000  54.4180000  88.1270000  81.8280000  68.1270000  85.9360000
  81.2580000  68.4700000  86.6240000  82.3870000  67.4900000  86.3830000
  56.4930000  42.6970000  86.0460000  56.5930000  42.5340000  86.9830000
  57.0500000  42.0410000  85.6270000  72.6000000  78.2750000  69.6090000
  72.7690000  78.1960000  68.6710000  71.8390000  78.8530000  69.6680000
  88.7730000  63.7430000  93.3640000  88.9960000  64.4920000  92.8110000
  89.0000000  62.9780000  92.8360000  71.3890000  31.0000000  81.6770000
  72.3460000  31.0070000  81.6800000  71.1460000  31.0930000  82.5990000
  72.3920000  67.1680000  93.9220000  72.7830000  66.4550000  94.4270000
  73.0260000  67.3450000  93.2270000  89.0000000  67.9120000  72.0810000
  88.9250000  68.3880000  71.2540000  88.7990000  68.5640000  72.7530000
  51.8800000  42.5540000  72.2470000  51.9100000  42.0300000  73.0460000
  51.2210000  42.1240000  71.7020000  70.6260000  55.2230000  67.9700000
  71.0220000  54.7720000  68.7150000  71.0090000  56.1000000  67.9880000
  87.0970000  81.2730000  96.4750000  87.2720000  80.3330000  96.4360000
  87.9640000  81.6800000  96.4660000  81.4000000  31.0710000  95.5770000
  81.7230000  31.0120000  96.4760000  80.4480000  31.0000000  95.6600000
  31.0110000  44.6720000  70.2230000  31.0000000  43.7630000  70.5240000
  31.2160000  45.1820000  71.0070000  54.5830000  47.8730000  91.7550000
  54.3600000  47.9170000  92.6840000  55.1680000  48.6180000  91.6120000
  52.9060000  84.1650000  75.8760000  51.9780000  83.9350000  75.8680000
  53.0700000  84.4700000  76.7690000  87.2720000  69.2000000  80.1270000
  86.4500000  69.0700000  80.6000000  87.3240000  70.1470000  79.9920000
  53.8400000  58.2880000  90.5800000  54.6950000  57.8960000  90.7580000
  53.5070000  58.5380000  91.4420000  37.7180000  40.7610000  94.6510000
  38.4820000  40.8790000  95.2170000  37.4960000  39.8340000  94.7390000
  51.6020000  35.3190000  95.3140000  51.8480000  36.1590000  94.9280000
  51.4950000  35.5060000  96.2470000  63.5950000  39.2100000  87.1810000
  63.1920000  39.1380000  86.3160000  64.4020000  38.6990000  87.1130000
  75.4160000  89.0000000  73.0410000  76.1830000  88.5550000  73.4000000
  74.7430000  88.9000000  73.7160000  33.7090000  42.7710000  65.0670000
  34.5700000  42.9660000  64.6970000  33.2500000  43.6110000  65.0620000
  31.7120000  38.3160000  77.3340000  32.4970000  38.7890000  77.0590000
  31.0000000  38.9470000  77.2220000  80.7010000  35.1100000  72.5910000
  79.8290000  34.7230000  72.6720000  81.2250000  34.6610000  73.2550000
  33.5380000  71.3190000  75.6130000  33.9260000  71.5690000  76.4520000
  33.4020000  72.1480000  75.1550000  64.1130000  71.7030000  58.1940000
  64.3940000  72.6180000  58.1700000  63.4720000  71.6300000  57.4860000
  81.4910000  70.4410000  69.0650000  80.6860000  69.9250000  69.1230000
  82.1330000  69.9410000  69.5700000  83.1430000  79.1690000  73.0630000
  82.2900000  79.2340000  72.6340000  83.5380000  80.0340000  72.9430000
  36.6170000  43.4280000  82.8470000  35.6850000  43.2590000  82.9870000
  37.0370000  42.5770000  82.9740000  35.9630000  52.8580000  66.4160000
  36.1090000  53.1680000  65.5220000  35.9210000  53.6570000  66.9430000
  80.1090000  88.4490000  90.5420000  80.8900000  89.0000000  90.4830000
  79.4590000  89.0000000  90.9780000  31.5210000  62.8650000  71.0390000
  31.0000000  63.1200000  71.8000000  32.3030000  62.4550000  71.4100000
  62.7350000  58.8780000  81.8810000  63.1340000  59.0160000  81.0220000
  62.8450000  59.7140000  82.3350000  61.2570000  73.6040000  89.4640000
  61.2030000  72.7920000  89.9670000  61.7970000  74.1840000  90.0010000
  58.0590000  54.9610000  58.9140000  57.8490000  54.5750000  58.0640000
  58.9240000  54.6120000  59.1290000  71.5640000  74.9290000  72.6990000
  70.7580000  74.4810000  72.9550000  72.2240000  74.2370000  72.6680000
  73.3070000  67.1170000  75.7360000  72.3640000  67.0800000  75.8960000
  73.5840000  66.2000000  75.7230000  44.6040000  63.8880000  80.8610000
  43.7810000  64.2330000  81.2080000  44.4440000  62.9510000  80.7490000
  83.4410000  47.5860000  80.0100000  84.2920000  48.0160000  80.0870000
  82.8710000  48.2490000  79.6200000  77.3860000  82.7400000  72.7400000
  77.5710000  81.8020000  72.7760000  78.2380000  83.1580000  72.8690000
  53.6970000  42.8280000  87.5300000  54.0800000  42.0310000  87.8980000
  52.9070000  42.9760000  88.0500000  46.9700000  66.5770000  58.4650000
  47.9220000  66.5020000  58.4120000  46.8030000  67.5200000  58.4770000
  59.2200000  65.0800000  87.1460000  58.4040000  64.5840000  87.2060000
  59.0210000  65.9200000  87.5590000  54.0390000  46.4540000  62.9950000
  54.2550000  46.4060000  62.0640000  54.7050000  45.9150000  63.4240000
  83.2440000  33.5180000  90.1230000  83.1430000  33.4870000  91.0740000
  83.9260000  34.1740000  89.9760000  31.0190000  54.8040000  56.4150000
  31.0000000  53.8780000  56.6550000  31.8740000  54.9270000  56.0000000
  56.0730000  54.1620000  77.1770000  56.2870000  53.2290000  77.1780000
  55.1160000  54.1880000  77.2080000  66.3480000  38.9270000  94.1170000
  65.6340000  39.3930000  94.5510000  67.1350000  39.4170000  94.3560000
  48.4640000  59.8070000  72.7960000  49.2580000  60.1800000  73.1760000
  47.8070000  59.8840000  73.4890000  38.9630000  88.7210000  66.6820000
  38.5720000  89.0000000  65.8540000  39.9020000  88.8650000  66.5640000
  70.9940000  43.8760000  69.1760000  71.3790000  43.3660000  68.4630000
  70.1450000  44.1610000  68.8360000  71.0100000  61.6130000  68.0970000
  71.8690000  61.6380000  67.6760000  70.8090000  62.5290000  68.2890000
  86.7590000  72.2260000  81.4500000  85.8700000  72.5520000  81.3160000
  87.2920000  73.0150000  81.5520000  50.9370000  44.2380000  86.2860000
  50.4870000  45.0610000  86.0950000  50.2340000  43.5920000  86.3610000
  61.4440000  79.8280000  68.2520000  61.3810000  80.3810000  67.4740000
  60.5390000  79.7280000  68.5480000  70.2640000  86.3600000  75.5680000
  69.7990000  85.8640000  74.8950000  71.1750000  86.0720000  75.4910000
  31.5210000  85.7160000  79.2020000  31.4210000  85.1670000  78.4240000
  32.4480000  85.9590000  79.2070000  55.7260000  63.7450000  94.7240000
  55.7800000  64.2850000  93.9360000  55.6200000  62.8510000  94.3950000
  81.2480000  79.5270000  76.0820000  81.3090000  79.9340000  75.2180000
  81.7930000  80.0770000  76.6460000  83.0820000  88.5270000  71.3930000
  82.2610000  88.5190000  71.8840000  82.8750000  89.0000000  70.5860000
  52.3670000  33.2650000  69.4020000  52.3330000  32.7140000  68.6200000
  52.9470000  33.9870000  69.1620000  59.4180000  50.9620000  87.7750000
  59.7860000  51.8460000  87.7690000  60.1810000  50.3840000  87.7690000
  65.3280000  48.7070000  67.9540000  66.1460000  48.6850000  67.4580000
  65.5980000  48.6140000  68.8680000  56.4690000  66.5430000  62.3920000
  56.1140000  67.1920000  62.9990000  56.3950000  66.9550000  61.5310000
  53.9660000  35.7980000  96.4940000  54.0190000  34.9260000  96.1030000
  54.8710000  36.1120000  96.5000000  63.5900000  86.4730000  56.2030000
  63.7900000  87.4080000  56.1800000  64.4260000  86.0450000  56.0130000
  65.2520000  47.9880000  82.4270000  65.6990000  48.7970000  82.6760000
  65.8940000  47.5110000  81.9000000  52.3080000  70.7600000  93.0430000
  52.0700000  70.6650000  93.9650000  51.8340000  71.5400000  92.7520000
  54.3660000  36.2990000  56.0000000  54.9920000  36.7530000  56.5630000
  53.6270000  36.0990000  56.5760000  67.8770000  80.7550000  76.9680000
  67.8490000  81.4760000  76.3390000  68.6180000  80.9620000  77.5380000
  68.8060000  81.7490000  64.7940000  68.3270000  81.1970000  64.1760000
  69.0540000  81.1540000  65.5030000  38.0790000  67.7670000  92.0160000
  38.0840000  68.6920000  91.7720000  38.9460000  67.4480000  91.7670000
  52.8990000  81.2330000  90.3610000  53.4200000  82.0050000  90.1410000
  52.0430000  81.5840000  90.6090000  83.6580000  37.2100000  80.4770000
  82.9000000  36.7790000  80.8730000  83.2810000  37.8540000  79.8770000
  54.3670000  76.9680000  58.1650000  55.2830000  77.2130000  58.2940000
  54.1200000  76.5260000  58.9770000  38.2520000  82.1840000  96.5000000
  39.0470000  81.6520000  96.4510000  37.5370000  81.5470000  96.4910000
  36.0720000  86.6190000  67.2590000  36.0540000  85.6620000  67.2660000
  36.9150000  86.8400000  66.8600000  43.4430000  44.8420000  69.8270000
  44.0810000  44.9310000  70.5350000  43.7310000  45.4690000  69.1640000
  41.1800000  88.3750000  94.3370000  40.7560000  87.5170000  94.3230000
  40.4550000  89.0000000  94.3750000  47.8500000  79.1130000  76.1120000
  48.0660000  79.2940000  77.0270000  48.5440000  78.5240000  75.8140000
  45.6360000  48.3220000  74.5530000  45.3870000  49.2160000  74.3210000
  46.5940000  48.3360000  74.5700000  34.1220000  64.1950000  96.3940000
  34.9760000  63.7760000  96.5000000  33.4980000  63.4680000  96.3800000
  61.4830000  61.1800000  65.3220000  61.0530000  60.6390000  65.9840000
  61.1500000  60.8480000  64.4870000  77.4940000  61.0700000  89.2870000
  78.4500000  61.1110000  89.2720000  77.2960000  60.2670000  89.7700000
  79.8200000  82.1300000  56.4340000  80.7190000  82.1640000  56.1080000
  79.3790000  82.8610000  56.0000000  34.0590000  34.0860000  93.4330000
  33.3870000  34.7020000  93.1420000  33.5890000  33.4650000  93.9910000
  75.5720000  55.9350000  64.8480000  75.6670000  55.1840000  65.4330000
  74.6280000  56.0120000  64.7070000  87.4280000  33.7910000  67.4880000
  86.9950000  33.1730000  68.0780000  88.1550000  33.2940000  67.1120000
  32.9750000  85.1640000  89.1290000  33.3320000  85.8800000  88.6040000
  32.9670000  84.4120000  88.5360000  52.7550000  71.9010000  56.0240000
  51.8890000  71.4950000  56.0190000  53.3660000  71.1630000  56.0230000
  69.8030000  71.4130000  56.1450000  70.1070000  72.3090000  56.0000000
  68.8500000  71.4700000  56.0840000  88.8690000  70.2520000  65.1720000
  89.0000000  71.0800000  64.7100000  88.8810000  70.4900000  66.0990000
  66.7120000  89.0000000  56.0000000  65.7570000  88.9400000  56.0000000
  67.0100000  88.0900000  56.0050000  42.9090000  42.1520000  90.7580000
  42.0330000  41.8080000  90.5820000  43.3060000  42.2520000  89.8930000
  47.1920000  31.3270000  71.4870000  47.0830000  31.0000000  70.5940000
  48.0500000  31.0000000  71.7590000  39.5980000  55.4620000  96.2230000
  38.6860000  55.3840000  96.5000000  39.7340000  56.4030000  96.1040000
  81.7540000  61.7020000  85.1970000  80.9700000  62.2470000  85.1350000
  81.4200000  60.8150000  85.3270000  75.6920000  81.2640000  85.3080000
  74.9260000  80.7260000  85.5050000  76.1940000  81.2740000  86.1230000
  31.0150000  60.5290000  77.2850000  31.0000000  61.2550000  76.6620000
  31.8290000  60.6490000  77.7750000  61.3540000  41.5870000  83.7920000
  61.7240000  42.4690000  83.8230000  62.1150000  41.0070000  83.8000000
  45.4550000  75.0460000  96.1520000  46.0760000  74.5390000  95.6310000
  44.8450000  74.3940000  96.5000000  81.7180000  53.3240000  67.5390000
  81.0180000  53.4490000  66.8980000  81.7360000  52.3790000  67.6920000
  31.0770000  44.4850000  79.9070000  31.5380000  44.7920000  79.1270000
  31.0000000  45.2610000  80.4620000  77.7730000  70.3860000  86.7710000
  77.0650000  69.9810000  87.2700000  77.6260000  71.3280000  86.8660000
  81.9670000  84.9030000  61.0530000  81.6940000  83.9870000  61.0890000
  82.3280000  85.0800000  61.9220000  52.7460000  35.1980000  62.6990000
  51.8110000  35.0300000  62.5820000  52.9010000  36.0260000  62.2440000
  89.0000000  37.1760000  83.1800000  88.9240000  37.6200000  82.3350000
  88.9340000  37.8790000  83.8270000  39.2500000  66.9430000  96.5000000
  40.1810000  67.1610000  96.4730000  38.9950000  66.8650000  95.5800000
  33.9580000  68.8400000  70.5130000  33.4680000  68.8330000  71.3340000
  33.2970000  69.0080000  69.8400000  56.5410000  50.5910000  65.7450000
  57.1690000  50.7940000  65.0520000  56.7870000  49.7140000  66.0420000
  50.5370000  33.6420000  56.0910000  51.4250000  33.9930000  56.0290000
  50.6460000  32.6950000  56.0000000  52.8610000  88.1640000  80.9450000
  53.6440000  87.6520000  81.1470000  53.1970000  89.0000000  80.6210000
  73.1250000  78.2400000  58.4670000  72.4190000  77.7740000  58.9150000
  73.8700000  77.6400000  58.5030000  88.2220000  68.7100000  60.1200000
  88.5440000  68.3040000  60.9250000  87.2980000  68.8920000  60.2960000
  31.0070000  80.3970000  73.6410000  31.0000000  81.2120000  74.1430000
  31.9210000  80.2870000  73.3760000  82.2600000  31.2470000  87.0990000
  81.6910000  31.2460000  87.8690000  81.6840000  31.0000000  86.3750000
  31.9280000  78.1470000  69.9400000  32.8480000  77.9590000  69.7550000
  31.9470000  78.9550000  70.4540000  75.6940000  65.9590000  94.0990000
  74.9700000  65.3880000  93.8400000  75.2690000  66.7150000  94.5060000
  35.7790000  54.9430000  69.1810000  36.3940000  54.8060000  69.9010000
  36.0080000  55.8040000  68.8300000  85.7570000  84.2770000  65.9260000
  85.2730000  85.0250000  65.5770000  86.5700000  84.6530000  66.2640000
  34.3970000  63.2150000  64.9210000  35.2700000  63.4020000  64.5760000
  34.3050000  62.2650000  64.8400000  65.8610000  68.5680000  84.0540000
  65.3690000  68.4900000  83.2370000  65.4360000  69.2860000  84.5230000
  67.2320000  72.1770000  96.3730000  68.0610000  72.5620000  96.0870000
  66.6510000  72.9270000  96.5000000  88.9600000  31.5780000  83.9810000
  88.7300000  31.0000000  84.7080000  89.0000000  31.0000000  83.2190000
  77.3930000  74.7680000  81.7110000  76.5970000  75.2770000  81.8610000
  77.1050000  74.0220000  81.1840000  39.8260000  52.2380000  73.8660000
  40.1520000  51.3460000  73.7430000  39.9970000  52.4310000  74.7880000
  64.7740000  72.2700000  74.4800000  65.5000000  71.8400000  74.9310000
  64.8290000  73.1860000  74.7560000  53.0690000  74.6880000  80.9070000
  52.9290000  73.7420000  80.8940000  52.5250000  75.0210000  80.1920000
  52.6340000  76.7450000  88.1220000  52.4040000  75.9720000  88.6380000
  53.2880000  77.2010000  88.6530000  88.9760000  49.1910000  70.9490000
  88.0860000  49.1680000  70.5990000  89.0000000  48.4820000  71.5910000
  86.1480000  65.0810000  92.0810000  85.9080000  64.3640000  91.4950000
  86.3200000  64.6560000  92.9220000  48.1950000  76.5430000  56.0090000
  47.8450000  77.4320000  56.0560000  47.4210000  75.9800000  56.0000000
  36.5440000  49.2350000  67.5740000  37.2560000  48.5980000  67.6300000
  35.7490000  48.7190000  67.7080000  52.1690000  79.7550000  80.3680000
  51.6630000  80.4540000  79.9550000  52.0280000  78.9920000  79.8070000
  55.2380000  75.6270000  92.8560000  55.9820000  75.1060000  93.1560000
  55.3730000  76.4890000  93.2520000  44.0440000  63.1460000  83.5830000
  43.6940000  63.9990000  83.8390000  44.9840000  63.2950000  83.4750000
  50.3980000  73.6060000  67.9020000  49.5570000  73.3250000  68.2610000
  50.8370000  72.7920000  67.6530000  55.6800000  68.8590000  64.8110000
  56.1240000  69.4520000  64.2060000  54.7470000  69.0140000  64.6600000
  52.0930000  83.9990000  59.3860000  51.2240000  84.2640000  59.6870000
  52.0170000  83.0570000  59.2330000  78.1980000  61.9970000  64.5280000
  78.6930000  62.4890000  63.8730000  77.6190000  61.4310000  64.0160000
  57.3300000  40.9610000  71.5600000  58.1270000  40.4440000  71.4460000
  57.1220000  41.2790000  70.6810000  80.9860000  76.5670000  72.8700000
  81.8510000  76.7750000  72.5160000  81.1340000  75.8070000  73.4330000
  45.4970000  39.9600000  92.9340000  45.6510000  39.0210000  92.8310000
  45.9760000  40.1950000  93.7290000  43.3550000  55.8020000  60.2390000
  42.5230000  55.9910000  59.8060000  43.9720000  56.4280000  59.8580000
  71.9750000  62.2900000  82.6920000  71.2540000  62.1060000  83.2940000
  72.6310000  62.7310000  83.2320000  43.6030000  88.0830000  93.7980000
  43.6970000  88.7590000  93.1270000  43.5290000  87.2650000  93.3060000
  89.0000000  88.4900000  64.7280000  88.8890000  89.0000000  63.9260000
  89.0000000  87.5790000  64.4360000  64.3860000  77.1270000  83.6030000
  64.9660000  77.8420000  83.8660000  63.8040000  77.0040000  84.3530000
  89.0000000  80.4100000  94.1000000  89.0000000  80.2800000  93.1520000
  89.0000000  81.3620000  94.2110000  60.4200000  63.9520000  70.7240000
  60.8910000  63.3760000  70.1210000  60.5120000  63.5300000  71.5790000
  63.6310000  73.3370000  91.5670000  63.0330000  73.0530000  92.2580000
  63.6670000  74.2900000  91.6570000  89.0000000  85.3520000  77.0760000
  88.9150000  84.7100000  77.7800000  88.1060000  85.4780000  76.7560000
  65.2900000  35.6500000  81.9660000  64.6060000  35.6730000  81.2960000
  65.3760000  36.5600000  82.2520000  56.7160000  50.4100000  83.6160000
  56.8900000  49.4850000  83.4430000  56.3600000  50.4240000  84.5050000
  70.0360000  76.4760000  61.2670000  70.0460000  76.7540000  62.1830000
  69.1140000  76.5160000  61.0140000  67.8570000  40.5860000  65.3750000
  68.7060000  40.1500000  65.3020000  68.0650000  41.5200000  65.3620000
  47.5610000  84.6940000  76.5050000  48.3200000  84.1380000  76.6780000
  46.8970000  84.0950000  76.1630000  64.3070000  66.9050000  73.0750000
  64.9790000  67.5830000  72.9990000  63.8870000  66.8870000  72.2150000
  82.5460000  72.9120000  78.7260000  83.4710000  72.7030000  78.8540000
  82.3000000  72.4360000  77.9320000  73.4800000  85.1180000  68.5110000
  72.7190000  84.8490000  67.9970000  73.3520000  86.0550000  68.6570000
  37.3270000  53.9460000  78.4560000  37.0260000  54.6330000  79.0510000
  38.2250000  53.7630000  78.7360000  68.5630000  52.0630000  84.2470000
  69.3630000  51.9040000  84.7470000  68.5600000  53.0080000  84.0930000
  37.0910000  52.0150000  89.4470000  36.2730000  51.7240000  89.8490000
  37.5590000  51.2060000  89.2420000  52.7070000  65.9110000  96.4600000
  52.3910000  66.8140000  96.5000000  51.9110000  65.3780000  96.4560000
  75.7130000  48.7980000  75.4670000  75.0370000  48.1230000  75.4130000
  75.8980000  49.0270000  74.5550000  87.3970000  33.0200000  56.0000000
  86.9790000  33.8810000  56.0240000  86.6680000  32.4000000  56.0040000
  38.6340000  54.6490000  63.9020000  38.0190000  53.9450000  64.1090000
  38.3830000  55.3660000  64.4850000  39.6540000  38.6660000  66.6440000
  40.4440000  38.9240000  66.1690000  39.3070000  37.9250000  66.1460000
  75.0650000  78.2620000  75.0790000  76.0060000  78.4340000  75.0750000
  74.9950000  77.3070000  75.0440000  55.2160000  55.5360000  96.3450000
  54.4050000  55.7210000  95.8710000  55.6060000  56.3970000  96.5000000
  84.4670000  51.5300000  89.0640000  83.7650000  52.0270000  88.6450000
  85.2500000  52.0670000  88.9380000  69.6830000  76.7050000  84.4530000
  69.9320000  77.2420000  85.2050000  69.9600000  77.2150000  83.6920000
  58.5360000  74.0900000  59.3990000  59.4640000  74.2450000  59.2240000
  58.4430000  74.2300000  60.3420000  59.5410000  41.7590000  73.0740000
  60.1680000  42.4740000  73.1820000  60.0800000  40.9690000  73.0420000
  57.8630000  66.9020000  66.0130000  58.4140000  67.5440000  66.4610000
  58.4820000  66.3290000  65.5600000  65.6600000  74.7120000  83.3390000
  65.9470000  73.8900000  82.9420000  64.7050000  74.6410000  83.3730000
  54.0950000  70.1580000  78.6660000  54.4510000  70.8260000  78.0790000
  53.9800000  69.3870000  78.1100000  86.4950000  52.3070000  95.5940000
  86.0520000  52.9790000  95.0770000  86.2610000  52.5080000  96.5000000
  48.0120000  62.8830000  63.2910000  47.6540000  61.9950000  63.2890000
  48.9530000  62.7620000  63.1660000  31.0690000  59.9820000  87.2830000
  32.0100000  59.8100000  87.2810000  31.0000000  60.9380000  87.2870000
  52.0830000  53.7330000  64.2320000  52.4210000  53.0310000  63.6770000
  51.3590000  53.3320000  64.7130000  86.4860000  66.7690000  69.7150000
  85.6870000  67.2640000  69.5320000  87.1950000  67.3950000  69.5670000
  82.3990000  48.6870000  96.5000000  83.3460000  48.7800000  96.4010000
  82.0630000  49.5830000  96.4530000  59.8370000  66.3280000  63.4540000
  59.8570000  65.3760000  63.5470000  59.1790000  66.4900000  62.7780000
  49.9160000  33.3840000  64.5330000  50.2430000  33.4250000  65.4320000
  50.7040000  33.2920000  63.9960000  42.9690000  77.0960000  79.5000000
  43.5920000  77.5020000  80.1030000  43.4070000  77.1190000  78.6500000
  86.3130000  53.4390000  78.8260000  85.4150000  53.7570000  78.7350000
  86.8580000  54.2120000  78.6770000  85.6090000  55.0350000  56.0480000
  86.4840000  55.4210000  56.0440000  85.7630000  54.0900000  56.0280000
  33.1430000  55.7790000  96.1840000  33.2480000  55.1580000  95.4630000
  34.0200000  56.1360000  96.3240000  67.1490000  35.0260000  89.4120000
  67.6210000  34.8200000  88.6050000  66.9630000  34.1740000  89.8060000
  75.7030000  64.8740000  96.5000000  76.3060000  65.6180000  96.5000000
  74.8320000  65.2720000  96.5000000  55.6940000  37.6050000  72.3620000
  54.9040000  37.2260000  72.7460000  55.3750000  38.3250000  71.8170000
  34.3670000  35.5330000  85.0360000  34.5820000  34.6680000  84.6860000
  33.5410000  35.7650000  84.6120000  61.1590000  62.4640000  58.7990000
  61.6900000  63.1120000  58.3360000  61.5220000  61.6200000  58.5310000
  45.8250000  56.0280000  94.1040000  45.1920000  56.5870000  94.5550000
  46.6710000  56.4480000  94.2620000  36.7280000  66.9420000  80.0920000
  35.9590000  67.4510000  80.3480000  37.2410000  67.5390000  79.5480000
  51.7750000  52.8640000  89.9350000  50.9160000  53.0000000  90.3350000
  52.2650000  52.3590000  90.5840000  53.8340000  59.1070000  73.5200000
  54.2020000  59.9260000  73.1900000  54.1700000  58.4360000  72.9250000
  66.6960000  36.7580000  85.5300000  65.9620000  37.3520000  85.6890000
  66.7480000  36.2250000  86.3230000  35.8500000  73.9000000  61.6070000
  35.9100000  74.4300000  60.8120000  35.6340000  74.5270000  62.2980000
  37.9690000  82.6680000  85.9530000  37.1410000  82.1870000  85.9740000
  38.6420000  81.9870000  85.9350000  47.8290000  59.1820000  63.5700000
  47.5400000  58.3250000  63.2580000  48.4800000  59.4650000  62.9270000
  52.7420000  66.6050000  77.8300000  51.9670000  67.0400000  78.1850000
  53.0020000  67.1460000  77.0850000  84.5640000  84.6590000  87.7110000
  84.4910000  84.9010000  86.7880000  83.6620000  84.6580000  88.0300000
  33.6050000  37.8030000  87.4390000  33.6820000  38.7380000  87.6280000
  34.5030000  37.4740000  87.4830000  66.5720000  43.7180000  65.6890000
  66.2660000  44.5970000  65.4650000  67.0890000  43.8400000  66.4850000
  37.1330000  64.9270000  90.5500000  38.0620000  64.8530000  90.7660000
  36.8480000  64.0240000  90.4050000  89.0000000  61.6240000  67.9640000
  88.9830000  61.6550000  67.0080000  88.9880000  60.6900000  68.1740000
  55.6970000  89.0000000  80.6790000  56.2760000  89.0000000  79.9170000
  56.2890000  88.9390000  81.4290000  62.1320000  37.2060000  69.7130000
  62.2710000  37.1090000  68.7710000  62.9340000  37.6180000  70.0330000
  46.8960000  39.9370000  86.7560000  45.9800000  40.2140000  86.7790000
  46.9860000  39.3430000  87.5010000  51.3350000  33.7070000  58.6030000
  50.7440000  34.4570000  58.6640000  50.7540000  32.9470000  58.5570000
  33.5460000  84.9590000  76.2220000  33.3590000  85.6020000  76.9050000
  33.4760000  85.4500000  75.4040000  84.1650000  61.2170000  58.3960000
  84.7140000  60.5760000  57.9450000  83.8430000  60.7550000  59.1700000
  47.1800000  66.4410000  87.1990000  46.8270000  67.2130000  87.6410000
  47.9010000  66.1520000  87.7610000  88.0620000  48.2030000  93.9840000
  89.0000000  48.0410000  94.0790000  87.6450000  47.5250000  94.5170000
  54.4530000  68.5360000  84.7860000  54.5200000  67.5970000  84.6150000
  55.3490000  68.8080000  84.9870000  37.6080000  82.2130000  69.8880000
  38.3730000  82.3200000  69.3240000  36.8680000  82.4830000  69.3430000
  68.2760000  83.4830000  58.0590000  69.0490000  82.9190000  58.0610000
  68.6290000  84.3740000  58.0580000  46.2330000  72.4900000  90.1640000
  45.3750000  72.7370000  89.8190000  46.4960000  73.2330000  90.7080000
  68.4420000  32.4580000  80.6180000  68.8750000  31.9700000  81.3180000
  68.3320000  33.3410000  80.9730000  88.0390000  78.6700000  85.3120000
  87.3550000  79.2720000  85.6050000  88.8470000  79.0260000  85.6820000
  88.5590000  40.1890000  87.9870000  88.9440000  40.8360000  88.5770000
  89.0000000  40.3340000  87.1500000  75.6100000  64.8940000  80.1470000
  76.4530000  64.9640000  80.5950000  75.2830000  64.0260000  80.3850000
  38.8050000  81.9370000  79.4140000  39.1460000  81.9850000  80.3070000
  38.2460000  81.1590000  79.4130000  35.9570000  76.2460000  83.2170000
  35.2350000  76.3110000  82.5930000  36.3880000  75.4190000  83.0010000
  83.6980000  31.0000000  63.2880000  84.6160000  31.2220000  63.1320000
  83.2840000  31.8340000  63.5130000  66.5810000  75.5180000  57.7150000
  66.1360000  74.6940000  57.9120000  65.9130000  76.1900000  57.8540000
  49.2640000  62.7540000  82.4830000  49.9750000  62.6020000  83.1060000
  49.7010000  62.8320000  81.6350000  77.9970000  79.6550000  64.1680000
  78.7130000  79.7120000  64.8000000  77.8650000  80.5570000  63.8740000
  69.3130000  53.4750000  78.0300000  69.4390000  53.6640000  78.9590000
  70.2010000  53.4040000  77.6770000  73.7990000  36.1400000  77.3650000
  73.1200000  36.0890000  76.6930000  74.6060000  36.3150000  76.8790000
  33.1420000  63.8940000  56.0000000  33.4290000  64.8070000  56.0010000
  32.1860000  63.9430000  56.0000000  67.3230000  52.4200000  79.7810000
  66.8740000  51.5750000  79.7630000  67.0760000  52.8410000  78.9570000
  59.9520000  47.1210000  63.1130000  59.0190000  46.9130000  63.0630000
  59.9850000  48.0780000  63.1170000  77.5430000  73.9890000  70.5540000
  78.2410000  73.3340000  70.5360000  78.0020000  74.8290000  70.5750000
  57.8290000  71.2770000  58.3450000  57.9890000  70.3880000  58.0290000
  58.6970000  71.6100000  58.5740000  41.7500000  86.2470000  69.6620000
  42.5940000  86.6990000  69.6620000  41.9760000  85.3170000  69.6670000
  41.7350000  36.0770000  59.7020000  42.2050000  36.4130000  60.4640000
  41.7330000  36.8050000  59.0800000  31.4860000  60.9580000  69.4230000
  32.3470000  60.6400000  69.6920000  31.0000000  60.1660000  69.1900000
  69.0850000  64.4270000  58.0560000  68.8360000  63.5520000  58.3520000
  69.8520000  64.2830000  57.5000000  33.7870000  63.8920000  72.8190000
  33.5880000  64.7440000  72.4310000  33.2020000  63.8290000  73.5740000
  31.0000000  50.0480000  62.1570000  31.1650000  50.9880000  62.0870000
  31.8710000  49.6500000  62.1450000  43.8310000  86.5880000  61.5570000
  43.6220000  86.5260000  62.4890000  43.7010000  85.7000000  61.2220000
  77.7070000  73.1450000  75.9520000  76.8670000  72.6870000  75.9390000
  78.1450000  72.8190000  76.7390000  33.2820000  31.9550000  61.5920000
  33.2410000  31.0000000  61.6430000  33.9020000  32.2060000  62.2770000
  68.5060000  76.1790000  65.1280000  68.2370000  75.7830000  64.2990000
  67.8250000  76.8260000  65.3160000  83.3590000  80.2020000  67.4020000
  82.5040000  80.2490000  66.9730000  83.8120000  80.9980000  67.1240000
  41.9270000  69.1410000  81.7000000  42.8280000  69.3360000  81.4430000
  41.5340000  69.9980000  81.8670000  46.7900000  58.2930000  68.9870000
  46.9850000  58.9530000  68.3220000  46.6700000  57.4820000  68.4910000
  38.0200000  85.5650000  60.1520000  37.1100000  85.2730000  60.2140000
  37.9610000  86.4850000  59.8960000  54.5880000  38.3260000  94.5190000
  53.8290000  37.7440000  94.5520000  54.3230000  39.0960000  95.0230000
  44.7920000  58.6250000  96.5000000  45.7320000  58.5190000  96.3520000
  44.5640000  59.4270000  96.0300000  82.0690000  63.7010000  74.6610000
  82.4240000  64.2670000  75.3470000  82.8090000  63.1570000  74.3910000
  36.0350000  75.0100000  71.3150000  35.4710000  74.2770000  71.0680000
  36.2990000  75.4010000  70.4820000  76.5340000  65.4510000  65.8290000
  76.4230000  64.5010000  65.8440000  76.5100000  65.7100000  66.7510000
  84.6250000  68.1740000  93.0440000  85.3670000  67.6020000  92.8490000
  84.5180000  68.1130000  93.9940000  65.7770000  70.0100000  96.4350000
  65.1720000  70.7520000  96.4470000  65.2140000  69.2390000  96.5000000
  56.6500000  38.0660000  79.8310000  56.9990000  37.8600000  80.6980000
  55.7210000  37.8400000  79.8870000  61.3690000  81.0740000  92.5480000
  61.6750000  80.2560000  92.1580000  62.1650000  81.5910000  92.6760000
  37.7420000  71.5340000  78.1650000  37.2630000  72.1850000  78.6770000
  37.0690000  70.9230000  77.8630000  63.3630000  33.1540000  58.4780000
  63.1600000  32.2190000  58.4930000  64.3040000  33.1990000  58.6510000
  48.0950000  88.0750000  96.2920000  48.3380000  89.0000000  96.2700000
  47.1600000  88.0770000  96.5000000  43.8160000  40.8760000  87.8410000
  43.9920000  41.7520000  87.4990000  42.8610000  40.8250000  87.8890000
  63.2170000  71.2900000  63.4580000  63.4370000  70.3630000  63.3700000
  62.2640000  71.3200000  63.3680000  45.0350000  78.9870000  89.5320000
  44.6860000  78.1210000  89.7420000  44.3120000  79.4370000  89.0930000
  38.6260000  62.8020000  82.1250000  38.1470000  63.2880000  81.4530000
  38.3180000  63.1710000  82.9530000  70.9930000  58.7460000  92.1040000
  70.2890000  58.2760000  91.6570000  70.7190000  58.7740000  93.0210000
  38.2470000  65.5900000  93.4680000  38.2700000  64.6440000  93.6140000
  37.3190000  65.7920000  93.3470000  53.0390000  85.1200000  70.6140000
  52.8670000  84.1970000  70.4290000  52.1730000  85.5280000  70.6240000
  85.9840000  76.6950000  85.7810000  86.4880000  77.1000000  86.4870000
  85.0910000  77.0140000  85.9100000  39.1580000  48.5470000  56.1110000
  38.3300000  48.0790000  56.0000000  39.8090000  47.8560000  56.2370000
  33.2900000  88.1000000  76.8290000  33.5200000  89.0000000  77.0600000
  33.4040000  88.0590000  75.8790000  71.0260000  81.3890000  89.8280000
  71.3200000  80.5620000  89.4470000  71.6650000  82.0340000  89.5250000
  48.6110000  36.1500000  93.1130000  49.1010000  36.9690000  93.0530000
  49.2800000  35.4660000  93.0640000  43.7200000  75.6400000  73.2280000
  43.9860000  76.4890000  73.5800000  42.7760000  75.6010000  73.3830000
  76.6170000  61.1370000  66.9230000  76.0520000  61.5430000  66.2660000
  76.1340000  60.3600000  67.2080000  86.3410000  34.6140000  88.8870000
  86.3510000  34.7650000  89.8320000  85.8450000  35.3510000  88.5310000
  31.9300000  77.6260000  78.1090000  31.9740000  78.5650000  78.2880000
  31.0000000  77.4550000  77.9550000  31.0000000  59.7650000  96.0620000
  31.0120000  58.8380000  96.2960000  31.7680000  60.1330000  96.5000000
  77.3810000  76.5300000  76.1000000  76.9910000  75.6560000  76.0770000
  78.2930000  76.3930000  75.8420000  58.6250000  45.7470000  76.7690000
  59.1730000  46.1590000  76.1010000  58.5550000  44.8330000  76.4920000
  76.0900000  47.4410000  83.3520000  77.0450000  47.5020000  83.3440000
  75.8700000  47.2350000  84.2600000  51.6550000  63.8790000  62.7680000
  51.0560000  63.6780000  62.0490000  52.4830000  63.4700000  62.5120000
  63.3590000  74.7370000  61.8700000  63.8050000  75.0840000  62.6420000
  62.9110000  73.9520000  62.1840000  42.7600000  67.0940000  84.0670000
  42.5090000  66.2250000  83.7520000  41.9460000  67.5990000  84.0510000
  50.6560000  55.6080000  57.9890000  49.8470000  55.2500000  58.3530000
  50.9340000  56.2680000  58.6250000  69.3180000  37.0660000  89.3400000
  68.4310000  37.4250000  89.3360000  69.5730000  37.0450000  88.4180000
  33.3400000  71.3860000  64.9500000  34.2450000  71.1010000  65.0690000
  33.0960000  71.7690000  65.7940000  62.6190000  52.9040000  56.1080000
  62.6850000  53.8530000  56.0010000  63.5090000  52.6250000  56.3270000
  68.3180000  44.0220000  90.2880000  68.4800000  43.6690000  91.1630000
  68.5450000  43.3050000  89.6950000  48.1240000  65.0550000  91.9470000
  48.1420000  64.1230000  92.1610000  49.0280000  65.2660000  91.7130000
  39.7440000  89.0000000  59.6700000  39.9200000  88.4280000  60.4160000
  40.5590000  88.9960000  59.1670000  63.6660000  58.0380000  85.2180000
  63.6860000  57.2870000  85.8110000  63.1430000  57.7400000  84.4720000
  72.1260000  72.2280000  90.5280000  71.1720000  72.3060000  90.5470000
  72.2910000  71.4270000  90.0290000  36.1240000  58.5580000  69.6120000
  35.2890000  59.0220000  69.6610000  36.7750000  59.2040000  69.8870000
  69.3200000  40.6600000  72.9450000  68.8780000  39.9180000  72.5340000
  68.8080000  41.4230000  72.6760000  88.9480000  63.9580000  65.9610000
  89.0000000  64.7250000  65.3900000  88.0270000  63.6960000  65.9270000
  74.1820000  47.8320000  71.7680000  73.3280000  47.4660000  71.9960000
  74.4710000  48.2820000  72.5630000  71.3110000  80.3380000  58.4760000
  70.5960000  80.9740000  58.4600000  71.9930000  80.7560000  59.0030000
  35.9950000  75.2040000  73.8790000  36.9290000  75.0350000  73.7620000
  35.9240000  76.1590000  73.8930000  69.4550000  55.1300000  75.9560000
  69.9550000  54.4990000  75.4390000  70.1150000  55.5940000  76.4720000
  44.3850000  42.7720000  79.2140000  45.1600000  42.7800000  78.6530000
  44.6450000  42.2500000  79.9740000  62.2520000  60.6710000  90.0010000
  62.0630000  60.8010000  90.9300000  61.4780000  60.2240000  89.6590000
  60.6650000  88.4430000  71.0040000  59.9850000  89.0000000  71.3850000
  61.4600000  88.9750000  71.0440000  85.9690000  31.8020000  91.4340000
  85.0960000  32.0170000  91.7620000  86.4100000  32.6490000  91.3560000
  58.3460000  31.5860000  83.3580000  59.0980000  31.0000000  83.4500000
  57.5900000  31.0000000  83.3120000  35.0300000  89.0000000  83.9270000
  35.5240000  88.8380000  83.1240000  34.1130000  88.9920000  83.6510000
  36.0880000  85.6730000  57.6020000  37.0140000  85.5220000  57.4130000
  36.0870000  86.3970000  58.2290000  57.9240000  68.6820000  84.5510000
  57.9760000  69.5870000  84.2450000  58.1510000  68.7290000  85.4800000
  69.7590000  35.4490000  56.1130000  68.8440000  35.1930000  56.0000000
  69.7500000  36.4050000  56.0520000  57.4330000  78.8100000  60.8750000
  57.3130000  79.7590000  60.9100000  58.3010000  78.6920000  60.4870000
  33.7940000  49.8000000  73.6480000  33.7750000  50.5510000  74.2410000
  34.6770000  49.8090000  73.2770000  57.1870000  31.3310000  68.1820000
  58.1270000  31.3590000  68.0080000  56.7870000  31.7270000  67.4070000
  33.7560000  52.6820000  78.2780000  34.5060000  52.2390000  77.8810000
  33.2540000  51.9800000  78.6930000  61.1110000  50.6540000  75.4190000
  61.2700000  50.9540000  74.5240000  61.7440000  51.1380000  75.9500000
  55.8300000  66.2420000  86.8620000  55.6330000  67.1790000  86.8610000
  54.9720000  65.8170000  86.8620000  75.8300000  39.5130000  86.9750000
  76.0590000  38.6270000  86.6950000  74.8730000  39.5130000  87.0140000
  80.3810000  81.5570000  65.0480000  79.5760000  82.0560000  64.9100000
  80.3190000  81.2440000  65.9510000  36.2480000  77.8030000  71.9070000
  35.8790000  77.8110000  71.0240000  36.5960000  78.6870000  72.0290000
  37.8540000  40.6350000  67.0690000  37.4650000  39.8800000  66.6280000
  37.1110000  41.0880000  67.4690000  68.4910000  70.5640000  90.1300000
  68.9470000  70.8590000  90.9180000  67.6310000  70.9820000  90.1790000
  35.3790000  40.7070000  71.9480000  36.1100000  40.1090000  71.7930000
  35.4440000  41.3530000  71.2450000  76.1790000  59.8120000  96.4620000
  76.2320000  58.8560000  96.4660000  75.2400000  60.0000000  96.5000000
  34.7730000  80.8610000  91.0530000  35.7040000  81.0840000  91.0710000
  34.6490000  80.2890000  91.8100000  48.3810000  79.0080000  90.3430000
  49.0940000  79.5620000  90.6580000  47.7610000  79.6180000  89.9430000
  43.8760000  57.0240000  91.6020000  43.2930000  56.7610000  92.3140000
  44.7460000  56.7480000  91.8910000  33.0700000  31.8800000  88.2620000
  32.3020000  32.4400000  88.3780000  32.7090000  31.0000000  88.1480000
  74.1210000  85.0060000  73.2780000  73.2620000  85.1180000  72.8720000
  73.9320000  84.6370000  74.1410000  39.2940000  43.5720000  68.1420000
  40.1680000  43.3470000  68.4610000  38.9760000  42.7700000  67.7270000
  65.1820000  34.4600000  84.6120000  64.6880000  33.8090000  85.1120000
  64.6140000  35.2310000  84.5960000  71.4470000  72.8020000  60.4940000
  71.6260000  73.4650000  61.1600000  70.5340000  72.5540000  60.6420000
  68.7370000  43.8320000  56.2240000  67.8170000  43.7000000  56.0000000
  69.0450000  42.9670000  56.4970000  76.1460000  49.7440000  89.5510000
  76.9190000  50.1270000  89.9650000  75.6760000  50.4930000  89.1820000
  78.2910000  88.9480000  64.1540000  78.7210000  88.9690000  63.3000000
  79.0090000  89.0000000  64.7850000  71.5860000  61.2390000  70.5100000
  72.2960000  60.6020000  70.4320000  70.8320000  60.7240000  70.7980000
  53.0710000  54.9880000  83.8650000  54.0250000  54.9530000  83.8030000
  52.8650000  55.9230000  83.8670000  47.7150000  32.0390000  56.0000000
  48.4270000  31.4000000  56.0140000  48.1540000  32.8880000  56.0550000
  63.7010000  63.1470000  56.1820000  64.5890000  63.4960000  56.1120000
  63.8020000  62.2060000  56.0400000  50.0740000  73.5150000  85.2640000
  50.7030000  74.2260000  85.1390000  49.4870000  73.5790000  84.5100000
  68.0150000  83.4260000  88.5640000  68.5140000  84.2190000  88.7630000
  67.1010000  83.6770000  88.7020000  69.3780000  67.8220000  85.0620000
  69.7960000  67.8170000  84.2020000  69.5280000  66.9410000  85.4070000
  47.3830000  68.7540000  94.0490000  47.1080000  69.6610000  93.9160000
  48.2600000  68.8220000  94.4280000  75.5050000  78.6290000  96.5000000
  74.8250000  77.9550000  96.4730000  76.3270000  78.1420000  96.4460000
  61.5780000  41.5860000  67.9050000  61.1240000  40.7590000  67.7440000
  62.1120000  41.7220000  67.1220000  63.0940000  49.3500000  84.7110000
  63.6930000  50.0690000  84.9110000  63.6400000  48.6970000  84.2730000
  79.4970000  79.3430000  86.8210000  79.0680000  78.8120000  86.1500000
  79.2450000  80.2430000  86.6110000  88.7900000  44.4710000  68.6550000
  88.8360000  44.4290000  67.7000000  89.0000000  45.3810000  68.8650000
  61.3130000  67.3630000  80.1490000  61.0060000  67.9840000  80.8090000
  60.7330000  66.6060000  80.2440000  66.6280000  83.8590000  93.4380000
  66.0310000  83.4890000  94.0890000  66.1070000  83.9100000  92.6370000
  54.0430000  78.8890000  78.2490000  54.2710000  78.6800000  77.3430000
  53.8200000  79.8200000  78.2310000  31.0010000  56.9070000  86.0210000
  31.1350000  57.8490000  85.9200000  31.1570000  56.7400000  86.9510000
  33.0900000  74.1910000  78.4260000  33.1330000  75.1460000  78.4750000
  33.4980000  73.9750000  77.5870000  31.4230000  65.5370000  80.2550000
  31.0000000  66.3820000  80.1030000  31.0000000  64.9430000  79.6340000
  38.6280000  87.7440000  96.4500000  38.7100000  86.7910000  96.4630000
  39.5300000  88.0630000  96.5000000  75.5940000  36.1960000  69.2470000
  75.8620000  36.0450000  68.3400000  75.2590000  37.0930000  69.2520000
  47.5040000  67.0740000  82.1980000  48.0650000  67.3270000  81.4660000
  46.9760000  67.8520000  82.3760000  72.2300000  77.8110000  94.9060000
  73.0790000  77.6590000  94.4920000  72.4120000  77.7740000  95.8460000
  64.9970000  78.3810000  56.9170000  65.1750000  78.5900000  56.0000000
  65.6960000  78.8190000  57.4030000  31.5380000  60.7930000  56.0020000
  31.0000000  61.5840000  56.0000000  31.0000000  60.1380000  56.4480000
  41.8190000  86.5570000  77.8850000  41.4050000  86.7090000  78.7350000
  42.7160000  86.8740000  77.9950000  42.1600000  88.5460000  86.2200000
  43.1150000  88.4810000  86.2070000  41.8570000  87.6520000  86.0560000
  67.2460000  85.8720000  68.3160000  66.5940000  85.7890000  67.6200000
  66.8450000  86.4650000  68.9520000  41.3610000  78.1930000  88.0440000
  41.1560000  77.2590000  88.0790000  42.2900000  78.2260000  87.8150000
  81.1960000  67.6250000  89.9280000  80.2760000  67.3680000  89.8690000
  81.5940000  67.2750000  89.1300000  31.1150000  37.5010000  72.5250000
  31.0030000  38.4180000  72.7740000  31.0000000  37.4950000  71.5740000
  45.3280000  77.3940000  63.0750000  45.3670000  78.3380000  62.9250000
  46.2440000  77.1160000  63.1000000  64.0100000  79.1310000  59.9350000
  63.8590000  79.3790000  59.0230000  64.0060000  78.1730000  59.9270000
  69.7680000  79.7200000  91.2170000  69.4560000  79.8500000  92.1120000
  70.1710000  78.8510000  91.2270000  68.9300000  43.7920000  64.7790000
  68.7720000  44.4020000  64.0590000  69.3200000  44.3310000  65.4680000
  55.3240000  52.3820000  58.8830000  55.0790000  51.4810000  59.0950000
  54.9570000  52.5300000  58.0110000  81.5640000  57.0980000  58.5530000
  81.4620000  56.1470000  58.5760000  80.7190000  57.4220000  58.2400000
  49.7510000  58.4110000  75.3060000  50.0940000  59.2900000  75.4640000
  48.8480000  58.4450000  75.6210000  60.7730000  41.4120000  59.9780000
  60.8290000  41.7820000  60.8590000  61.6830000  41.2510000  59.7260000
  72.7470000  53.0710000  70.7840000  71.9070000  53.3030000  71.1790000
  72.5170000  52.6870000  69.9370000  59.1890000  74.8900000  74.3320000
  59.3800000  74.0920000  74.8230000  58.2330000  74.9320000  74.3020000
  34.4770000  35.7540000  63.8790000  33.9980000  35.3560000  63.1520000
  33.8620000  36.3850000  64.2540000  86.9930000  80.4350000  68.2730000
  87.2730000  81.3420000  68.3950000  86.1710000  80.5020000  67.7870000
  65.2310000  76.1760000  91.1610000  65.8100000  75.5770000  91.6320000
  65.7620000  76.5020000  90.4340000  31.1620000  40.6050000  86.1140000
  31.0000000  39.6630000  86.0790000  31.1280000  40.8890000  85.2010000
  36.7690000  43.4400000  88.0870000  36.5770000  44.3760000  88.1460000
  37.3990000  43.2790000  88.7900000  67.8130000  74.1750000  68.9020000
  68.1020000  73.6070000  68.1880000  67.7580000  73.5960000  69.6630000
  61.2030000  31.0640000  94.0950000  60.9910000  31.9770000  93.9010000
  62.1470000  31.0000000  93.9470000  79.1090000  33.5190000  62.1710000
  78.6600000  34.1290000  62.7560000  78.5400000  33.4610000  61.4030000
  39.8240000  88.9980000  73.9240000  38.8980000  89.0000000  73.6850000
  39.8610000  88.4940000  74.7380000  68.1660000  64.1810000  89.1640000
  68.8910000  63.8270000  88.6500000  68.4560000  65.0580000  89.4160000
  38.3020000  77.1260000  89.6410000  38.9650000  77.7500000  89.3460000
  37.5400000  77.6670000  89.8490000  49.4110000  86.0770000  71.4730000
  49.9360000  85.4090000  71.9130000  49.5290000  85.9000000  70.5400000
  81.3640000  74.5370000  71.1860000  81.7380000  73.8010000  70.7020000
  80.4170000  74.4340000  71.0870000  79.2790000  52.4600000  96.4350000
  80.2250000  52.5970000  96.4790000  79.1710000  51.5110000  96.5000000
  40.0060000  64.8090000  79.4800000  39.9520000  64.1910000  78.7510000
  40.1160000  64.2570000  80.2550000  56.6780000  74.5650000  90.3360000
  56.2520000  73.8060000  89.9370000  57.5520000  74.5830000  89.9450000
  61.5000000  80.7020000  80.3860000  62.2320000  81.2430000  80.0910000
  61.1090000  81.1980000  81.1050000  38.2720000  36.9610000  69.6110000
  38.0960000  36.0530000  69.3640000  38.5940000  37.3700000  68.8080000
  48.4960000  89.0000000  75.6590000  48.5820000  88.1080000  75.9950000
  48.8260000  88.9510000  74.7620000  74.8130000  86.2910000  93.9390000
  74.3960000  86.9670000  93.4050000  75.6700000  86.6560000  94.1610000
  64.3230000  43.7360000  82.7860000  65.1750000  44.0600000  82.4960000
  64.5000000  43.3160000  83.6280000  66.2910000  39.6570000  67.4320000
  66.1060000  39.2670000  66.5780000  66.2140000  40.6010000  67.2860000
  77.1700000  83.1800000  61.9820000  77.1440000  83.5510000  62.8630000
  77.2700000  82.2380000  62.1210000  49.9830000  34.1840000  67.8000000
  50.6850000  34.6840000  68.2150000  49.1800000  34.6330000  68.0640000
  33.4750000  59.3420000  92.2810000  34.3210000  59.5740000  91.8980000
  32.8370000  59.5590000  91.6010000  40.4080000  65.6180000  89.4540000
  41.1250000  65.8160000  88.8520000  40.8000000  65.0460000  90.1150000
  76.2600000  52.8370000  71.4390000  76.7110000  53.2630000  70.7090000
  75.3440000  53.0930000  71.3380000  40.5930000  31.3570000  92.5590000
  40.2300000  31.0000000  93.3690000  40.0340000  31.0000000  91.8680000
  69.0400000  77.7330000  58.5940000  69.9590000  77.9880000  58.5240000
  69.0290000  76.8060000  58.3530000  74.2720000  55.1510000  83.5610000
  73.5900000  55.2390000  84.2270000  74.2280000  54.2340000  83.2910000
  75.8840000  33.1320000  68.0850000  76.7270000  33.4520000  68.4070000
  75.2980000  33.1970000  68.8400000  61.4820000  58.0700000  64.9820000
  62.3520000  58.0980000  65.3790000  61.6100000  57.6040000  64.1550000
  81.7350000  77.1020000  93.7040000  81.0840000  76.7580000  93.0930000
  81.4780000  78.0140000  93.8400000  38.1460000  80.2210000  89.1370000
  38.0860000  80.2840000  90.0900000  37.2460000  80.3370000  88.8310000
  50.0710000  88.7150000  62.9130000  49.3670000  89.0000000  62.3300000
  50.0290000  87.7580000  62.8880000  63.6170000  44.4500000  72.9090000
  63.2060000  44.3710000  72.0490000  64.3320000  45.0730000  72.7780000
  81.4800000  53.2930000  88.6950000  81.3410000  52.4360000  89.0980000
  81.0540000  53.2270000  87.8390000  88.4210000  51.6400000  90.2140000
  89.0000000  52.2010000  90.7290000  89.0000000  50.9710000  89.8470000
  40.5030000  80.1740000  74.6850000  39.8090000  80.0410000  74.0390000
  41.0460000  79.3880000  74.6190000  80.9730000  56.8570000  81.7070000
  81.1050000  55.9720000  81.3690000  80.1640000  56.8010000  82.2160000
  89.0000000  55.8630000  63.0820000  88.9390000  56.0580000  62.1470000
  88.1750000  55.4230000  63.2900000  84.8880000  88.8280000  73.6590000
  85.1940000  89.0000000  74.5490000  83.9440000  88.9850000  73.6950000
  65.5700000  80.9300000  62.7310000  66.4960000  80.9620000  62.4900000
  65.4390000  81.7030000  63.2800000  62.7490000  45.2800000  87.0350000
  63.4160000  44.6000000  86.9450000  61.9910000  44.9370000  86.5600000
  40.7670000  74.8600000  79.3260000  41.1860000  75.5070000  78.7590000
  39.9010000  75.2250000  79.5080000  82.0840000  47.3370000  91.3020000
  81.1270000  47.3650000  91.3080000  82.3510000  48.2560000  91.2990000
  56.3220000  85.2650000  96.1500000  56.3930000  84.3770000  96.4990000
  55.4930000  85.5940000  96.4990000  60.0760000  46.8790000  88.2630000
  60.2040000  47.7890000  88.5310000  60.9550000  46.4990000  88.2780000
  40.8460000  80.9020000  90.4450000  40.2710000  81.4910000  89.9560000
  41.3790000  80.4740000  89.7740000  31.0680000  46.8800000  89.6620000
  31.0000000  47.7780000  89.9880000  31.0800000  46.9720000  88.7090000
  60.3410000  71.2270000  94.4160000  60.9910000  71.9240000  94.3240000
  59.8800000  71.2180000  93.5770000  67.3020000  74.7000000  93.7860000
  67.4430000  75.6100000  93.5250000  67.8350000  74.1890000  93.1760000
  75.9710000  39.9550000  68.3170000  76.2990000  39.1120000  68.0050000
  75.4460000  39.7390000  69.0870000  39.1500000  50.9950000  84.6600000
  38.4460000  50.4320000  84.3400000  39.7810000  50.3900000  85.0520000
  76.6650000  44.5370000  81.6560000  76.3150000  45.4140000  81.8060000
  77.6160000  44.6550000  81.6550000  47.8620000  52.3330000  62.8620000
  48.2870000  51.8230000  63.5510000  47.7450000  51.7130000  62.1420000
  52.4800000  31.1960000  91.5960000  52.5230000  31.0000000  90.6600000
  52.5580000  32.1490000  91.6450000  84.8330000  77.0720000  67.9130000
  85.6140000  77.1660000  67.3680000  84.2710000  77.8030000  67.6550000
  59.8230000  41.2860000  69.8130000  59.1460000  41.6900000  69.2710000
  60.0480000  41.9580000  70.4570000  58.1400000  72.4790000  64.7890000
  58.4870000  73.0690000  65.4580000  58.9170000  72.1260000  64.3540000
  69.6760000  48.6800000  72.2320000  70.2530000  48.6030000  71.4720000
  69.9050000  49.5230000  72.6240000  35.6520000  51.9880000  72.5140000
  35.8940000  52.6760000  73.1340000  36.4300000  51.8720000  71.9690000
  67.4630000  62.4240000  87.0460000  68.1970000  61.8310000  86.8860000
  66.8000000  61.8770000  87.4680000  35.6900000  48.7440000  56.2470000
  36.0370000  48.4370000  57.0840000  35.0410000  48.0850000  56.0000000
  46.9810000  81.6540000  59.4850000  47.4640000  82.3360000  59.9500000
  46.0600000  81.8950000  59.5920000  38.3490000  60.8380000  89.0390000
  37.8270000  61.5930000  89.3130000  39.2070000  61.2040000  88.8250000
  81.6280000  51.1400000  94.4700000  80.6790000  51.0530000  94.5590000
  81.7830000  52.0850000  94.4710000  66.0340000  68.4490000  61.3590000
  65.1520000  68.6210000  61.6860000  65.9120000  67.7980000  60.6680000
  69.0680000  87.2640000  94.5190000  69.3310000  88.0480000  95.0000000
  68.1540000  87.4250000  94.2800000  36.6780000  50.1400000  59.2280000
  37.1190000  50.5790000  59.9550000  37.3900000  49.8010000  58.6850000
  84.9470000  79.0060000  65.3580000  85.8240000  79.2930000  65.6120000
  84.5260000  79.7960000  65.0170000  88.8470000  46.0730000  72.2460000
  88.8340000  45.1900000  72.6130000  88.9350000  45.9390000  71.3010000
  31.0000000  72.8800000  56.7860000  31.3540000  73.3810000  56.0520000
  31.6700000  72.9470000  57.4670000  59.1330000  62.8400000  92.2280000
  59.9840000  62.4030000  92.2310000  59.2530000  63.5970000  91.6530000
  84.7670000  45.0130000  74.7860000  83.8490000  44.8600000  74.5630000
  85.1520000  44.1370000  74.8300000  72.4550000  35.5990000  88.9930000
  71.6010000  35.8910000  89.3130000  72.2560000  35.1110000  88.1930000
  42.8650000  67.4720000  92.3970000  42.9320000  68.4260000  92.4420000
  42.0560000  67.3110000  91.9110000  46.0080000  42.0890000  85.1250000
  46.1860000  43.0220000  85.2460000  46.8690000  41.6990000  84.9720000
  85.2900000  32.5800000  87.1600000  85.0420000  33.4990000  87.0570000
  86.2260000  32.6050000  87.3630000  86.7900000  85.4430000  73.2010000
  86.8400000  84.6490000  72.6680000  86.5780000  85.1290000  74.0800000
  73.3150000  83.6060000  76.3830000  73.2000000  82.9650000  77.0840000
  73.2780000  84.4550000  76.8250000  86.7010000  82.1950000  64.9130000
  87.0870000  81.4380000  64.4740000  85.9110000  81.8530000  65.3320000
  86.6920000  69.2170000  65.9300000  86.9160000  68.6920000  65.1620000
  86.0780000  68.6730000  66.4220000  38.7650000  84.0240000  83.7050000
  38.7770000  84.5420000  84.5090000  39.3370000  83.2790000  83.8900000
  82.3970000  61.4260000  92.0630000  82.0990000  62.2300000  92.4890000
  82.2380000  60.7380000  92.7100000  81.0990000  67.6580000  71.5870000
  81.0590000  67.6200000  72.5430000  80.5730000  66.9130000  71.2950000
  82.6260000  58.5420000  75.8860000  82.9600000  57.6510000  75.7800000
  81.6810000  58.4610000  75.7580000  39.7750000  64.3230000  72.7990000
  40.2430000  63.4950000  72.6900000  39.0510000  64.2730000  72.1750000
  79.2340000  46.8000000  72.0020000  80.0090000  47.1000000  72.4780000
  79.4150000  45.8800000  71.8060000  48.3960000  33.1880000  59.3640000
  47.5260000  33.4670000  59.6480000  48.8330000  32.9090000  60.1700000
  87.0230000  53.7880000  61.3060000  87.9730000  53.9090000  61.3120000
  86.8790000  52.9940000  61.8210000  62.5390000  71.2070000  70.1700000
  62.3120000  70.2830000  70.0670000  61.7870000  71.5890000  70.6250000
  75.1520000  79.5780000  93.7060000  74.4600000  79.7380000  94.3480000
  75.9580000  79.5550000  94.2230000  31.5860000  81.9480000  69.9470000
  31.0000000  81.1950000  69.8760000  31.0010000  82.6970000  70.0650000
  85.1520000  54.7130000  73.0800000  84.6430000  55.4300000  73.4580000
  85.1680000  54.0440000  73.7650000  70.8680000  47.8760000  57.7570000
  70.4380000  48.0740000  58.5880000  71.8040000  47.9310000  57.9530000
  66.2220000  47.1550000  72.3800000  67.1530000  47.2730000  72.5720000
  65.9370000  48.0050000  72.0440000  45.5160000  88.1660000  84.9260000
  45.4200000  88.9980000  85.3880000  45.8380000  87.5580000  85.5920000
  82.3660000  65.5220000  78.9250000  83.0790000  65.1330000  78.4200000
  82.2630000  64.9430000  79.6810000  74.8300000  51.8020000  79.6460000
  74.1770000  51.8830000  78.9510000  75.5660000  52.3370000  79.3470000
  51.2640000  86.5670000  86.0170000  50.9660000  85.7140000  85.7040000
  52.2190000  86.5170000  85.9810000  46.9720000  66.1830000  79.4120000
  46.2410000  65.5720000  79.5010000  47.6510000  65.6810000  78.9620000
  76.3600000  88.7680000  92.9310000  77.0370000  89.0000000  92.2950000
  75.5370000  89.0000000  92.5010000  34.0530000  57.7980000  79.4890000
  34.5140000  58.6300000  79.5960000  34.3930000  57.2430000  80.1910000
  83.3320000  40.6260000  63.7000000  82.4460000  40.2660000  63.7270000
  83.2060000  41.5750000  63.7250000  60.0400000  54.4090000  56.0220000
  60.1750000  54.2160000  56.9500000  59.2390000  54.9330000  56.0000000
  78.1050000  48.8270000  85.3350000  78.8410000  49.1270000  85.8680000
  77.8710000  47.9760000  85.7070000  69.3400000  71.6210000  69.2430000
  69.9240000  70.8650000  69.1960000  68.4610000  71.2500000  69.1600000
  40.6860000  63.9310000  59.7600000  41.5220000  63.5920000  60.0810000
  40.9280000  64.6450000  59.1700000  78.5410000  31.0000000  56.1290000
  77.6540000  31.3340000  56.0000000  78.6680000  31.0130000  57.0780000
  51.6800000  37.2590000  91.3370000  50.7460000  37.1220000  91.1770000
  52.0230000  36.3840000  91.5190000  78.5370000  50.8280000  71.6810000
  78.5280000  51.7840000  71.7300000  79.4570000  50.5900000  71.8000000
  80.1830000  42.8760000  89.1140000  79.2790000  43.1780000  89.2020000
  80.6710000  43.6540000  88.8450000  70.3830000  46.5400000  67.5890000
  70.4000000  47.3910000  67.1510000  69.6010000  46.1080000  67.2450000
  53.4920000  78.4720000  96.5000000  52.6220000  78.8630000  96.4230000
  54.0960000  79.2030000  96.3660000  46.3920000  56.7060000  89.6300000
  45.9560000  55.8910000  89.8780000  46.7340000  56.5380000  88.7510000
  31.1490000  77.2140000  86.1600000  31.0000000  77.5650000  85.2820000
  32.0710000  76.9570000  86.1620000  35.9710000  32.4870000  86.4310000
  35.8670000  31.5420000  86.5470000  35.1050000  32.8480000  86.6220000
  82.2750000  81.4660000  83.4600000  81.4990000  81.4490000  84.0220000
  83.0130000  81.4410000  84.0700000  46.0820000  53.7950000  77.2200000
  46.8630000  53.2850000  77.0030000  46.4080000  54.6850000  77.3580000
  55.2830000  70.6330000  75.5680000  54.5350000  70.5780000  74.9730000
  55.3490000  71.5630000  75.7850000  41.2320000  34.5000000  79.1140000
  40.3370000  34.3630000  78.8050000  41.7680000  34.4730000  78.3210000
  71.8780000  40.7410000  65.0400000  72.2120000  40.6250000  64.1510000
  70.9930000  41.0850000  64.9210000  53.2350000  40.2580000  75.7320000
  52.3280000  40.5300000  75.5960000  53.5410000  39.9960000  74.8630000
  66.7040000  70.8480000  71.5850000  67.1330000  70.1170000  71.1400000
  67.4240000  71.3560000  71.9600000  82.1680000  38.3740000  56.0000000
  83.0850000  38.1110000  56.0760000  82.1850000  39.3290000  56.0720000
  63.1920000  81.6040000  57.0030000  62.6270000  81.3880000  57.7450000
  63.9010000  80.9620000  57.0470000  82.1110000  80.4150000  93.3030000
  81.3740000  81.0190000  93.2160000  82.2600000  80.3530000  94.2470000
  58.2760000  59.3330000  59.3220000  57.5260000  59.9260000  59.2760000
  58.6500000  59.4860000  60.1900000  57.9030000  36.5560000  84.0240000
  57.3760000  36.8090000  84.7820000  58.4420000  35.8300000  84.3380000
  32.7790000  58.3120000  76.7580000  33.3320000  57.6040000  77.0890000
  31.9530000  58.2120000  77.2320000  31.8630000  72.8510000  83.4550000
  31.0030000  72.7220000  83.8540000  32.1460000  71.9710000  83.2050000
  60.4050000  88.5480000  56.0090000  60.8100000  87.6810000  56.0000000
  59.4810000  88.3800000  56.1920000  73.0620000  53.3470000  73.3950000
  72.8830000  52.4060000  73.3980000  74.0150000  53.4100000  73.4740000
  38.6650000  82.2130000  76.2750000  38.0870000  82.0530000  77.0210000
  38.5510000  81.4450000  75.7150000  53.5900000  33.8000000  88.9080000
  52.8440000  33.3760000  88.4850000  53.6600000  33.3680000  89.7600000
  80.3180000  84.6200000  71.8730000  80.8120000  84.2410000  71.1460000
  80.0760000  85.4950000  71.5690000  42.5880000  35.6860000  74.0630000
  42.1250000  34.9030000  73.7650000  43.5140000  35.4800000  73.9350000
  47.8600000  39.5510000  77.4570000  48.1290000  38.6580000  77.2420000
  47.0540000  39.6860000  76.9570000  84.2140000  84.0610000  90.7770000
  84.9560000  83.9830000  91.3770000  84.2740000  84.9540000  90.4360000
  65.6070000  57.8220000  95.9400000  66.0250000  58.4760000  96.5000000
  66.2330000  57.6780000  95.2300000  38.5790000  48.1870000  88.5850000
  39.4240000  47.8420000  88.2980000  38.0160000  47.4160000  88.6540000
  46.9090000  81.1110000  62.0580000  46.0940000  81.5790000  62.2350000
  46.6340000  80.2150000  61.8650000  88.9950000  36.8930000  60.6640000
  88.7200000  36.0060000  60.4310000  88.1780000  37.3900000  60.7220000
  87.6050000  41.8770000  68.2490000  87.2580000  42.5080000  68.8790000
  88.5530000  42.0120000  68.2720000  56.4210000  68.9970000  94.4570000
  55.5270000  69.3080000  94.3150000  56.4260000  68.1100000  94.0960000
  31.7670000  53.9060000  86.8380000  31.7530000  54.1250000  85.9070000
  32.6100000  53.4700000  86.9690000  74.9850000  40.6710000  59.7060000
  75.2170000  40.3150000  60.5640000  74.1220000  41.0650000  59.8350000
  71.5760000  33.3280000  96.5000000  72.5250000  33.2020000  96.5000000
  71.4610000  34.2790000  96.5000000  83.5580000  53.3160000  65.7980000
  83.1830000  52.5450000  65.3730000  84.1820000  53.6620000  65.1590000
  60.5260000  62.3200000  81.0420000  60.6700000  61.5270000  81.5570000
  60.7640000  63.0360000  81.6320000  62.2230000  46.2260000  65.5260000
  61.6470000  46.9900000  65.5290000  62.3590000  46.0320000  64.5980000
  66.3600000  68.9450000  56.0000000  66.5470000  68.0100000  56.0920000
  67.1210000  69.3800000  56.3850000  41.4620000  73.7990000  93.1910000
  41.0190000  72.9530000  93.1230000  40.7520000  74.4390000  93.2340000
  58.7560000  71.9810000  88.9800000  57.8100000  72.0300000  89.1190000
  59.0010000  72.8590000  88.6850000  69.0540000  32.8710000  68.4500000
  68.1450000  32.5720000  68.4720000  68.9910000  33.8220000  68.3500000
  60.2530000  88.9260000  77.5990000  60.9900000  89.0000000  78.2040000
  60.2450000  88.0030000  77.3420000  55.3960000  55.6160000  79.4580000
  55.3970000  56.3910000  80.0200000  56.3150000  55.3480000  79.4190000
  63.4550000  59.2570000  75.9790000  63.3570000  59.4280000  75.0430000
  63.4320000  60.1240000  76.3850000  81.4400000  50.4230000  74.4950000
  82.0490000  50.7240000  75.1690000  81.5560000  49.4730000  74.4740000
  38.3580000  54.1890000  66.7690000  38.4260000  53.2560000  66.5670000
  38.4670000  54.2370000  67.7190000  88.5520000  40.0610000  59.6690000
  89.0000000  39.7370000  60.4500000  89.0000000  39.6300000  58.9400000
  77.1580000  49.7190000  61.8760000  77.3610000  50.6530000  61.9110000
  76.2080000  49.6840000  61.7550000  33.1500000  48.3080000  66.6020000
  32.5830000  47.5790000  66.8520000  33.6810000  47.9650000  65.8830000
  79.4180000  53.1080000  79.4490000  79.9450000  53.9060000  79.4510000
  78.5120000  53.4190000  79.4510000  33.7050000  86.1610000  82.3630000
  34.0450000  85.5410000  81.7170000  34.1480000  86.9850000  82.1600000
  67.7940000  64.3480000  85.2500000  68.0630000  63.8210000  84.4980000
  67.7600000  65.2440000  84.9140000  68.5490000  36.0150000  82.8250000
  67.8480000  35.3740000  82.9350000  68.0950000  36.8510000  82.7120000
  70.0790000  52.5270000  95.2650000  70.3590000  51.9420000  95.9690000
  69.3140000  52.9800000  95.6200000  35.1780000  63.4530000  81.7320000
  35.7390000  64.2050000  81.5450000  35.7200000  62.6910000  81.5240000
  68.0630000  55.5790000  88.3310000  67.5550000  54.9420000  87.8270000
  68.9410000  55.5410000  87.9510000  39.8010000  34.6110000  66.3490000
  39.2390000  35.2880000  66.7240000  39.1920000  33.9770000  65.9690000
  88.4190000  59.5620000  90.5260000  89.0000000  60.3140000  90.4160000
  89.0000000  58.8470000  90.7890000  46.0040000  51.5570000  82.1870000
  46.3020000  51.0840000  81.4100000  45.7540000  52.4220000  81.8590000
  63.2220000  39.3050000  58.2100000  63.2400000  38.6040000  58.8610000
  64.0830000  39.2660000  57.7910000  53.1860000  60.8330000  81.8090000
  52.9720000  60.7490000  80.8800000  53.5050000  59.9670000  82.0610000
  69.6250000  88.9830000  85.3000000  68.6680000  89.0000000  85.3030000
  69.8480000  88.0520000  85.2800000  78.9740000  34.9380000  78.9110000
  79.2570000  34.7820000  78.0110000  79.5930000  34.4420000  79.4480000
  73.8280000  55.4940000  95.1140000  73.0900000  55.8590000  94.6270000
  74.4010000  56.2440000  95.2790000  51.7040000  61.0830000  74.5860000
  50.8630000  61.5380000  74.5410000  52.3410000  61.7740000  74.7670000
  88.1030000  72.3090000  56.0010000  88.8160000  72.9480000  56.0010000
  87.3060000  72.8390000  56.0010000  62.7170000  79.1870000  82.8790000
  63.0460000  79.7830000  82.2060000  61.9330000  78.7970000  82.4910000
  57.8700000  64.5130000  61.9830000  58.5800000  63.8730000  62.0100000
  57.1930000  64.1440000  62.5510000  52.5640000  33.0390000  81.8740000
  52.8330000  32.5890000  82.6750000  52.9350000  33.9180000  81.9560000
  69.5220000  71.6180000  93.6050000  70.0920000  71.8930000  92.8870000
  69.6980000  70.6820000  93.7060000  75.2340000  77.4810000  77.5340000
  75.2500000  76.5310000  77.6430000  74.3070000  77.6950000  77.4230000
  44.2150000  71.2150000  96.5000000  43.4290000  71.7590000  96.4520000
  44.9410000  71.8340000  96.4160000  50.0850000  59.1440000  92.8250000
  49.9310000  58.2020000  92.8890000  50.7340000  59.2350000  92.1270000
  34.8390000  67.4260000  91.7680000  35.1080000  68.2210000  92.2270000
  35.5730000  66.8220000  91.8840000  64.0570000  60.2160000  69.4250000
  63.3080000  59.7570000  69.8040000  63.7200000  61.0840000  69.2020000
  39.6580000  70.2110000  83.6160000  39.0980000  70.8160000  84.1010000
  40.3340000  69.9540000  84.2430000  69.9650000  48.4660000  92.1070000
  69.2800000  48.2720000  92.7460000  70.2170000  47.6110000  91.7580000
  33.9610000  74.4810000  64.1970000  34.3840000  73.6250000  64.2660000
  34.6140000  75.0990000  64.5260000  78.6750000  45.8320000  90.3290000
  78.9800000  45.5890000  91.2030000  79.4740000  46.0510000  89.8480000
  66.9040000  77.7280000  92.2900000  66.1550000  78.0720000  92.7760000
  67.2940000  78.4960000  91.8730000  41.5410000  55.0290000  63.1850000
  42.2140000  55.4470000  62.6480000  41.0160000  55.7560000  63.5210000
  44.3910000  38.6260000  74.0350000  44.3130000  39.4560000  74.5050000
  43.4970000  38.2860000  73.9990000  74.4370000  51.8690000  66.4030000
  75.0740000  51.1580000  66.4740000  74.9680000  52.6560000  66.2780000
  41.9220000  50.8070000  93.8200000  41.3200000  51.2530000  93.2250000
  42.1740000  51.4780000  94.4540000  64.9060000  69.7020000  69.2610000
  64.8200000  70.1890000  70.0800000  65.8230000  69.8170000  69.0090000
  55.8460000  85.4290000  62.1730000  56.5250000  85.4110000  62.8470000
  55.7460000  86.3570000  61.9590000  85.8640000  42.0680000  61.7940000
  85.4500000  42.0040000  62.6550000  86.3700000  41.2600000  61.7100000
  89.0000000  76.3930000  80.0210000  88.8520000  75.4940000  80.3160000
  88.9690000  76.3400000  79.0650000  78.9940000  56.0600000  66.0980000
  79.4050000  55.6690000  66.8700000  78.3820000  55.3920000  65.7880000
  34.3490000  47.0190000  58.6480000  34.1170000  46.1650000  59.0130000
  33.5130000  47.4790000  58.5640000  35.3700000  73.0450000  94.2700000
  34.4600000  73.2440000  94.4910000  35.3980000  72.0900000  94.2070000
  74.9810000  71.1170000  69.5740000  74.2180000  71.6320000  69.8340000
  74.6160000  70.2920000  69.2530000  47.6170000  31.0140000  93.9630000
  48.0200000  31.8530000  93.7400000  46.6870000  31.2160000  94.0720000
  61.3900000  86.2770000  69.6960000  61.3760000  85.3200000  69.6820000
  62.3200000  86.5030000  69.7100000  77.8770000  62.7230000  80.1210000
  78.0370000  63.0180000  81.0170000  77.6930000  61.7880000  80.2040000
  76.4770000  38.1270000  81.6860000  76.2990000  37.1950000  81.8120000
  75.6120000  38.5220000  81.5730000  64.7270000  87.9060000  68.6040000
  64.7280000  88.8250000  68.3390000  64.7050000  87.4180000  67.7800000
  33.2210000  47.4140000  69.2640000  32.7950000  47.4950000  70.1170000
  33.6270000  48.2680000  69.1160000  88.5330000  46.0950000  78.3480000
  89.0000000  46.5250000  77.6320000  87.6070000  46.2440000  78.1550000
  67.7360000  85.3530000  73.4640000  66.8450000  85.6230000  73.2440000
  68.2950000  85.8850000  72.8980000  62.7120000  58.3630000  90.8440000
  63.1100000  58.1750000  89.9940000  62.3770000  57.5180000  91.1450000
  31.0000000  69.6020000  56.9270000  31.0790000  69.8530000  56.0070000
  31.0670000  70.4280000  57.4070000  31.4670000  70.5020000  68.9650000
  31.0060000  70.9080000  68.2310000  31.0000000  69.6800000  69.1170000
  60.2790000  79.0100000  86.7170000  59.4900000  79.3190000  86.2720000
  60.0670000  79.0700000  87.6490000  83.8270000  73.3220000  86.9280000
  83.4460000  72.5080000  86.5990000  84.4610000  73.5780000  86.2570000
  71.4840000  45.2170000  91.7600000  70.7080000  44.7740000  91.4170000
  72.0220000  44.5120000  92.1230000  37.0210000  84.2800000  75.7110000
  36.0740000  84.1780000  75.6220000  37.1630000  84.3920000  76.6510000
  64.8630000  57.3630000  58.1070000  64.0640000  56.8590000  58.2590000
  64.5540000  58.2420000  57.8840000  79.1160000  36.9390000  68.6430000
  78.4130000  36.5730000  68.1070000  78.9320000  37.8790000  68.6710000
  64.0850000  63.4060000  61.0220000  64.2530000  62.5760000  61.4690000
  63.9360000  63.1610000  60.1090000  62.5120000  65.5970000  88.2660000
  63.2700000  66.1340000  88.4970000  61.7630000  66.1860000  88.3610000
  88.8470000  55.1370000  69.8860000  88.6030000  55.8530000  69.3000000
  89.0000000  55.5610000  70.7310000  75.5150000  39.5240000  93.6780000
  75.4010000  40.4690000  93.5780000  75.1680000  39.3320000  94.5500000
  86.3120000  35.8500000  95.2540000  85.9020000  36.1440000  96.0670000
  85.6850000  35.2310000  94.8800000  58.6410000  71.7120000  91.4630000
  58.3560000  70.8050000  91.3570000  57.9480000  72.1230000  91.9800000
  72.0400000  68.3340000  65.5900000  72.7760000  68.4870000  64.9970000
  71.4950000  67.6910000  65.1360000  35.6240000  55.1000000  72.5600000
  35.0880000  55.1250000  73.3530000  36.0150000  55.9730000  72.5070000
  41.5600000  66.5470000  80.3870000  42.1570000  66.1480000  81.0200000
  42.0580000  67.2720000  80.0110000  53.1970000  81.7610000  56.3760000
  53.3510000  81.5610000  57.2990000  52.7950000  82.6290000  56.3820000
  57.9160000  31.0860000  88.5980000  58.4400000  31.2820000  89.3750000
  58.5570000  31.0000000  87.8920000  56.0450000  85.9830000  75.1390000
  56.3940000  86.2010000  76.0030000  55.5540000  85.1720000  75.2750000
  66.1940000  87.0740000  76.1050000  65.5240000  86.9270000  76.7720000
  67.0240000  86.9410000  76.5650000  34.3180000  60.0200000  75.7750000
  34.2150000  59.8130000  74.8470000  34.9480000  59.3750000  76.0960000
  63.6120000  46.1650000  84.4030000  63.1410000  45.3330000  84.3540000
  64.3570000  46.0540000  83.8120000  70.9690000  55.7230000  79.9910000
  70.9270000  55.6720000  79.0360000  71.2650000  56.6160000  80.1700000
  33.0020000  42.6720000  91.8890000  32.2650000  42.7570000  92.4940000
  32.9780000  41.7570000  91.6080000  31.0630000  35.5010000  61.3300000
  31.0100000  34.5540000  61.2010000  31.9660000  35.6540000  61.6110000
  72.8220000  63.3990000  70.7420000  72.6820000  63.5710000  69.8110000
  73.7730000  63.3350000  70.8340000  88.5780000  31.0000000  56.8800000
  88.9790000  31.0580000  56.0130000  89.0000000  31.6950000  57.3860000
  38.9500000  67.9980000  72.7690000  39.2450000  67.5390000  71.9820000
  38.4150000  68.7210000  72.4390000  69.4880000  85.1980000  86.5090000
  70.1820000  85.5730000  85.9670000  69.1090000  85.9480000  86.9670000
  53.3140000  70.0570000  66.4230000  52.7030000  69.4290000  66.0380000
  52.8150000  70.8720000  66.4820000  66.6520000  87.7910000  86.4190000
  66.3730000  88.6930000  86.2600000  65.8430000  87.3230000  86.6270000
  34.8190000  38.5860000  75.4940000  35.4720000  38.5930000  74.7940000
  34.0100000  38.8770000  75.0710000  49.5710000  46.6510000  73.9640000
  48.8410000  47.2050000  74.2400000  49.6030000  46.7540000  73.0120000
  47.4000000  43.6060000  56.5370000  47.9630000  44.1650000  56.0020000
  46.6200000  43.4670000  56.0000000  66.9710000  42.0230000  80.4010000
  66.2850000  42.6530000  80.1800000  67.6590000  42.5510000  80.8070000
  55.3490000  62.9160000  58.4520000  54.4610000  63.0970000  58.1460000
  55.3240000  62.0010000  58.7350000  85.6610000  46.8200000  72.5920000
  86.4840000  47.3080000  72.5650000  85.9270000  45.9030000  72.6580000
  54.5990000  57.9600000  56.0070000  55.5090000  57.6650000  56.0080000
  54.0850000  57.1520000  56.0030000  58.5230000  65.1600000  68.2590000
  58.9710000  65.5760000  68.9950000  58.8570000  64.2620000  68.2510000
  45.7020000  57.1280000  84.9200000  45.3850000  56.2330000  84.8000000
  46.1760000  57.1040000  85.7520000  48.7610000  49.4390000  93.0240000
  48.7840000  49.4390000  93.9810000  48.3170000  48.6230000  92.7940000
  50.8630000  37.3450000  60.5040000  50.0980000  37.6090000  61.0150000
  50.9570000  36.4090000  60.6790000  69.5380000  81.9880000  68.7150000
  69.9340000  81.8480000  67.8550000  69.9970000  81.3780000  69.2930000
  46.8980000  37.1890000  75.6370000  47.7790000  37.1510000  75.2670000
  46.4890000  37.9420000  75.2090000  65.6760000  84.1910000  60.7860000
  66.0180000  85.0240000  61.1110000  66.4010000  83.8100000  60.2900000
  53.1440000  81.5530000  67.6790000  52.9270000  82.4580000  67.9000000
  53.1230000  81.0890000  68.5160000  64.1770000  60.8410000  66.3650000
  64.8810000  60.6200000  66.9740000  63.4400000  60.2950000  66.6410000
  62.8470000  69.9830000  67.3770000  63.5190000  69.7790000  66.7270000
  63.1260000  70.8160000  67.7580000  44.0920000  50.3470000  69.2290000
  43.1820000  50.0970000  69.0670000  44.5440000  49.5170000  69.3860000
  61.3460000  71.4540000  66.0230000  60.7620000  70.6960000  66.0040000
  60.7580000  72.2090000  66.0520000  89.0000000  81.5760000  89.7840000
  88.2800000  81.0370000  89.4580000  88.6200000  82.4500000  89.8830000
  37.2930000  56.9710000  80.2580000  36.8300000  57.7880000  80.0750000
  37.6310000  57.0810000  81.1470000  78.6470000  83.1260000  70.3150000
  78.8160000  82.1840000  70.3130000  79.0480000  83.4450000  69.5070000
  82.9110000  39.1000000  85.9460000  83.3410000  38.5310000  85.3090000
  82.4030000  38.5040000  86.4970000  34.5740000  74.5360000  85.0110000
  33.7530000  74.9750000  85.2310000  34.4330000  73.6230000  85.2620000
  36.3850000  46.7440000  91.5660000  37.1460000  46.4670000  92.0760000
  36.1410000  45.9690000  91.0590000  42.7610000  63.4160000  94.2300000
  43.6690000  63.3240000  93.9420000  42.3760000  62.5500000  94.0920000
  89.0000000  84.3300000  95.7320000  88.4660000  84.1280000  96.5000000
  88.7240000  83.6920000  95.0740000  59.7530000  50.4810000  81.1000000
  58.9540000  50.3870000  81.6180000  60.0460000  49.5820000  80.9460000
  33.8190000  49.2470000  81.4330000  33.7510000  49.9120000  80.7480000
  34.2450000  48.5040000  81.0040000  44.5050000  54.9480000  67.5390000
  45.2150000  55.5730000  67.3950000  43.7240000  55.4920000  67.6440000
  88.4280000  43.6960000  61.2020000  89.0000000  42.9290000  61.2320000
  89.0000000  44.4300000  61.4290000  79.3550000  76.2170000  83.9320000
  79.3010000  77.0610000  84.3790000  78.9690000  76.3770000  83.0700000
  44.9320000  31.0000000  78.2750000  44.5250000  31.5200000  78.9680000
  45.7040000  31.5050000  78.0170000  44.2360000  54.1320000  90.3460000
  43.3890000  54.5050000  90.5890000  44.6210000  53.8490000  91.1760000
  54.8620000  76.1560000  85.7580000  54.8060000  76.5940000  84.9080000
  54.4090000  76.7460000  86.3620000  65.6850000  46.4410000  79.4210000
  64.8220000  46.6420000  79.7840000  65.8660000  47.1620000  78.8180000
  49.9790000  65.5070000  70.2640000  49.2160000  66.0710000  70.3840000
  50.2660000  65.2980000  71.1540000  84.6120000  38.0980000  69.0400000
  83.8360000  37.5530000  68.9120000  84.9380000  37.8520000  69.9050000
  34.8010000  54.3790000  87.7590000  35.4300000  55.0830000  87.6050000
  35.3340000  53.6410000  88.0570000  61.7730000  57.2850000  75.7560000
  62.6440000  56.9230000  75.5970000  61.4270000  56.7680000  76.4840000
  56.4490000  53.3650000  96.4800000  56.8790000  53.7470000  95.7150000
  56.6920000  52.4400000  96.4550000  36.0900000  87.5360000  76.8530000
  35.5860000  86.7410000  77.0240000  35.9260000  88.0920000  77.6160000
  64.3510000  76.3980000  74.0290000  65.3030000  76.4930000  74.0410000
  64.1840000  75.5890000  74.5140000  53.5770000  32.5110000  94.1350000
  53.5850000  31.5540000  94.1760000  54.5020000  32.7570000  94.1040000
  56.0190000  35.6100000  91.6250000  55.7620000  34.7240000  91.8790000
  56.9590000  35.5490000  91.4560000  86.3810000  48.5600000  65.8480000
  87.0210000  49.1300000  66.2730000  86.8590000  47.7470000  65.6790000
  64.5970000  48.4170000  65.3700000  65.3170000  48.9370000  65.0140000
  63.9630000  49.0650000  65.6790000  55.1870000  69.5680000  72.4570000
  54.9870000  69.3410000  71.5490000  54.6100000  69.0080000  72.9770000
  38.9360000  61.3190000  79.9840000  39.7960000  61.7380000  80.0000000
  39.0940000  60.4620000  79.5880000  38.6330000  57.6070000  67.4320000
  38.3980000  56.6940000  67.2660000  39.5910000  57.6140000  67.4190000
  74.5880000  78.9670000  82.3980000  74.6690000  79.0680000  83.3470000
  75.4790000  78.7850000  82.0990000  38.7360000  58.6420000  90.1690000
  38.8300000  57.9960000  90.8700000  38.3640000  58.1500000  89.4370000
  86.3980000  62.2800000  56.9480000  86.6990000  63.1190000  57.2970000
  86.5020000  62.3640000  56.0000000  77.7160000  68.5360000  64.8070000
  77.3480000  68.6160000  65.6870000  76.9530000  68.4930000  64.2300000
  76.4510000  31.0000000  63.6650000  76.4050000  31.2450000  64.5890000
  76.6080000  31.8250000  63.2060000  43.4910000  54.6060000  81.7650000
  42.9030000  53.9580000  82.1520000  43.7450000  55.1670000  82.4980000
  80.2770000  62.3900000  56.2480000  80.3940000  61.4730000  56.0000000
  79.9150000  62.3550000  57.1340000  83.8230000  32.8230000  69.9440000
  83.6510000  33.5440000  69.3390000  84.1000000  33.2500000  70.7550000
  38.3560000  38.6730000  87.6320000  37.7350000  38.0690000  87.2240000
  38.1890000  39.5140000  87.2050000  54.9300000  62.7430000  74.1080000
  55.4260000  61.9250000  74.0800000  54.7880000  62.9680000  73.1880000
  65.4090000  62.6450000  70.7190000  65.6580000  61.8440000  71.1800000
  65.2640000  63.2870000  71.4150000  57.1760000  54.2460000  69.8180000
  58.0680000  54.2550000  69.4730000  56.8090000  53.4160000  69.5110000
  34.3100000  36.9460000  59.2910000  34.3730000  36.2680000  58.6180000
  33.7130000  36.5820000  59.9440000  52.3020000  45.0740000  74.7810000
  51.5400000  45.5770000  75.0680000  52.0340000  44.6890000  73.9460000
  70.7620000  45.0380000  88.9320000  71.5930000  45.5070000  89.0060000
  70.1060000  45.7270000  88.8240000  86.4900000  69.9790000  92.5490000
  87.4080000  69.7660000  92.7190000  86.5240000  70.7670000  92.0070000
  43.1010000  31.0000000  90.2240000  42.3270000  31.0460000  90.7850000
  42.8510000  31.4760000  89.4310000  44.0590000  35.9230000  58.7940000
  44.2190000  36.8660000  58.7770000  44.4280000  35.6310000  59.6280000
  72.8550000  31.0510000  64.7710000  72.8230000  31.0000000  63.8160000
  72.0860000  31.5700000  65.0090000  31.5740000  76.3000000  65.2750000
  31.0000000  75.7280000  64.7660000  31.0000000  76.6950000  65.9320000
  61.0460000  81.1010000  89.8910000  61.6080000  80.3670000  89.6430000
  61.6560000  81.7930000  90.1480000  68.0220000  31.6170000  91.4540000
  68.4760000  32.1680000  90.8160000  67.5190000  31.0000000  90.9220000
  83.6360000  88.8930000  85.8550000  83.9060000  89.0000000  84.9430000
  82.6840000  89.0000000  85.8370000  61.6860000  33.3880000  91.6870000
  62.1600000  32.5680000  91.5510000  60.7830000  33.1870000  91.4390000
  84.8610000  79.4240000  56.1130000  85.7270000  79.8170000  56.0000000
  84.2660000  80.1710000  56.1780000  31.1880000  88.3210000  81.6020000
  31.0510000  89.0000000  82.2620000  31.0020000  87.5000000  82.0600000
  56.2910000  33.8230000  84.0820000  57.1530000  33.5310000  84.3790000
  56.4600000  34.2610000  83.2480000  68.0150000  88.9920000  67.6350000
  68.7270000  88.9730000  68.2740000  67.2170000  88.9720000  68.1640000
  58.0810000  53.3110000  80.7090000  57.4710000  53.0800000  80.0090000
  58.3640000  54.2010000  80.4960000  71.6530000  84.5370000  70.2470000
  70.7990000  84.7230000  69.8570000  71.9210000  85.3660000  70.6450000
  67.4080000  80.8660000  56.2820000  66.4690000  80.8630000  56.0990000
  67.7020000  81.7360000  56.0090000  39.1410000  32.6300000  95.9700000
  39.2110000  31.6800000  95.8730000  40.0480000  32.9360000  95.9910000
  57.0260000  50.6900000  68.5410000  56.1270000  50.3620000  68.5360000
  57.5680000  49.9010000  68.5720000  47.1090000  52.4000000  92.0320000
  46.3180000  52.5750000  92.5420000  47.2880000  51.4710000  92.1770000
  68.6000000  68.2160000  95.0010000  68.2210000  68.4730000  94.1600000
  67.9200000  67.6890000  95.4200000  31.1740000  61.9590000  60.6700000
  31.0000000  62.8970000  60.7350000  32.1110000  61.9010000  60.4810000
  70.5050000  33.9240000  72.8090000  71.2010000  33.7810000  72.1680000
  70.8780000  34.5470000  73.4330000  82.6660000  53.1870000  56.5300000
  83.4600000  53.1180000  56.0000000  82.4570000  52.2840000  56.7690000
  85.8250000  82.5410000  73.5480000  85.2810000  81.7770000  73.3560000
  85.4380000  82.9200000  74.3370000  71.1440000  51.0600000  75.0440000
  70.2790000  50.7390000  74.7880000  71.0130000  51.9920000  75.2160000
  78.6100000  62.5960000  83.4950000  77.7250000  62.3210000  83.7360000
  78.5660000  63.5520000  83.4700000  50.0490000  46.9720000  79.9010000
  50.6040000  47.7250000  79.7020000  49.1690000  47.3380000  79.9870000
  50.2890000  42.2810000  56.1660000  50.7200000  41.4440000  55.9940000
  49.3540000  42.0890000  56.0920000  50.5120000  55.2050000  82.7070000
  50.4780000  54.2490000  82.7360000  49.8820000  55.4470000  82.0280000
  46.0010000  55.6690000  70.7450000  45.8980000  56.5230000  71.1650000
  45.2160000  55.5720000  70.2050000  72.6130000  83.9070000  86.6930000
  72.7700000  84.8500000  86.6530000  71.6890000  83.8280000  86.9320000
  49.6210000  73.1110000  73.0100000  50.5230000  72.9090000  72.7650000
  49.1290000  72.3200000  72.7880000  80.5460000  58.3010000  87.3200000
  80.6310000  59.0360000  87.9260000  80.8430000  58.6480000  86.4780000
  33.4730000  75.4440000  96.0660000  32.9640000  75.3690000  95.2600000
  33.3610000  74.5980000  96.5000000  37.3720000  45.9790000  63.5700000
  37.0350000  46.2810000  62.7270000  38.2370000  46.3840000  63.6420000
  63.0250000  62.6600000  87.4790000  62.4830000  61.8800000  87.5950000
  63.4940000  62.7520000  88.3090000  40.0800000  88.7120000  69.1730000
  39.9270000  89.0000000  70.0730000  40.9720000  89.0000000  68.9770000
  78.6370000  76.9690000  95.6800000  78.7890000  77.7550000  96.2040000
  79.3570000  76.9580000  95.0490000  62.4050000  48.5130000  95.8940000
  62.4980000  49.2480000  96.5000000  63.1880000  47.9810000  96.0400000
  72.0130000  61.4470000  93.2000000  71.9650000  62.2740000  93.6790000
  71.1910000  61.4050000  92.7100000  42.0730000  38.4390000  96.4760000
  42.9990000  38.6810000  96.4820000  41.6070000  39.2760000  96.4860000
  80.3980000  33.2770000  92.6470000  80.5120000  32.7440000  93.4340000
  79.4490000  33.3740000  92.5590000  53.9700000  34.1840000  76.2120000
  54.1820000  35.1160000  76.2670000  54.8210000  33.7450000  76.2030000
  83.2200000  72.2500000  63.6990000  82.7720000  73.0780000  63.5270000
  83.9920000  72.4970000  64.2090000  85.6810000  59.3010000  60.0400000
  84.9900000  59.0340000  60.6460000  86.2760000  58.5510000  60.0100000
  36.2910000  55.8300000  62.6090000  36.6810000  55.2020000  62.0010000
  36.8290000  56.6170000  62.5180000  68.6120000  41.1490000  62.9440000
  68.7710000  42.0920000  62.9530000  69.4860000  40.7580000  62.9530000
  65.9670000  74.2710000  65.7170000  66.8940000  74.4160000  65.9050000
  65.6290000  75.1370000  65.4890000  47.8560000  88.8760000  70.3790000
  47.0960000  89.0000000  70.9460000  47.7590000  87.9870000  70.0370000
  81.7560000  40.1200000  68.3950000  81.4010000  39.8740000  69.2490000
  82.5770000  39.6320000  68.3260000  31.1020000  52.2530000  59.8330000
  31.0000000  52.2080000  58.8830000  32.0230000  52.0380000  59.9860000
  68.7630000  55.5010000  85.1760000  69.5380000  54.9800000  85.3870000
  68.8490000  55.6900000  84.2410000  42.8120000  34.0760000  61.1800000
  41.8690000  34.0130000  61.3300000  42.9360000  33.7390000  60.2920000
  55.7890000  82.6200000  62.9260000  55.5580000  81.8040000  62.4810000
  56.0730000  82.3450000  63.7980000  59.9620000  50.2700000  84.1090000
  59.3240000  49.5630000  84.0220000  59.4430000  51.0310000  84.3720000
  66.4890000  31.2230000  75.2560000  67.4220000  31.0120000  75.2850000
  66.1930000  31.1220000  76.1610000  73.2990000  87.3860000  75.3740000
  73.2800000  87.0260000  74.4870000  73.7570000  86.7240000  75.8920000
  60.5290000  78.1490000  94.0820000  59.7380000  78.6830000  94.0140000
  61.2430000  78.7850000  94.1340000  50.9910000  38.0430000  64.0710000
  50.3350000  38.7230000  63.9200000  50.8140000  37.3840000  63.3990000
  45.0280000  77.0980000  71.0620000  45.2500000  76.1690000  71.0150000
  44.0740000  77.1130000  71.1390000  82.9740000  51.7870000  72.8880000
  83.7120000  51.3400000  73.3020000  83.3500000  52.5950000  72.5370000
  83.3310000  70.9670000  90.8320000  83.3180000  70.0580000  91.1310000
  83.8510000  71.4290000  91.4900000  34.3770000  62.8270000  62.0930000
  33.4540000  62.9060000  62.3350000  34.6250000  61.9480000  62.3780000
  64.5910000  59.4260000  72.5510000  64.9540000  59.4950000  71.6680000
  64.4610000  60.3330000  72.8290000  88.0220000  48.2900000  83.6840000
  87.5040000  47.6010000  84.1010000  88.9310000  48.0260000  83.8250000
  55.4560000  37.2530000  86.5210000  54.7790000  37.6960000  87.0320000
  55.0460000  37.0860000  85.6720000  87.7110000  65.3460000  89.6700000
  87.0690000  66.0560000  89.6870000  88.3000000  65.5380000  90.4000000
  69.9770000  33.6600000  87.8280000  70.5230000  33.1080000  87.2690000
  69.9660000  34.5110000  87.3890000  56.1270000  76.1300000  60.6760000
  55.7300000  76.9700000  60.9040000  57.0440000  76.3390000  60.4970000
  68.0420000  43.3720000  58.7970000  68.1420000  43.6640000  59.7030000
  67.3400000  43.9200000  58.4440000  88.0310000  39.9030000  92.4710000
  88.9660000  40.1020000  92.5200000  87.7140000  40.0190000  93.3670000
  69.3520000  71.6080000  77.0180000  68.5720000  71.0670000  76.9020000
  69.9680000  71.0440000  77.4870000  45.4630000  52.4220000  71.4440000
  45.6350000  53.2020000  70.9170000  44.5640000  52.5350000  71.7530000
  43.7460000  64.5590000  91.6830000  43.2110000  65.0450000  91.0560000
  44.0130000  65.2140000  92.3290000  60.9250000  31.1650000  89.1300000
  61.7060000  31.0000000  89.6570000  61.2370000  31.1370000  88.2250000
  69.4480000  68.7080000  76.6560000  69.8100000  67.8230000  76.6710000
  68.4990000  68.5790000  76.6600000  37.5050000  61.0810000  91.7560000
  38.4220000  60.8070000  91.7640000  37.5400000  62.0380000  91.7560000
  70.2750000  89.0000000  92.4520000  70.6990000  88.2810000  92.9200000
  69.3430000  88.8960000  92.6450000  35.0520000  85.8200000  69.5550000
  34.0970000  85.7510000  69.5690000  35.3570000  84.9120000  69.5470000
  55.2180000  52.5880000  94.2500000  55.3890000  51.6540000  94.3670000
  54.7320000  52.6420000  93.4270000  47.4350000  50.4830000  59.4740000
  47.8580000  49.8730000  60.0780000  47.6750000  50.1640000  58.6040000
  41.9610000  68.8170000  95.6650000  42.3570000  69.0670000  96.5000000
  42.4490000  68.0400000  95.3920000  62.4310000  43.4450000  69.7160000
  63.1490000  44.0440000  69.5120000  62.8520000  42.5890000  69.8100000
  41.0600000  36.1460000  82.1050000  41.1680000  35.5060000  81.4020000
  41.9110000  36.5810000  82.1670000  64.0290000  75.6300000  68.2040000
  64.4500000  76.4620000  67.9910000  64.6450000  74.9640000  67.8970000
  48.8580000  40.2340000  57.6930000  48.8920000  39.7420000  56.8730000
  49.7690000  40.2740000  57.9870000  57.1530000  63.0960000  70.1430000
  56.5850000  63.6060000  70.7200000  58.0350000  63.2350000  70.4900000
  49.7960000  41.4040000  76.3360000  49.6240000  41.0450000  75.4660000
  50.4580000  42.0800000  76.1910000  61.9190000  79.0040000  71.5870000
  62.1950000  79.5750000  70.8710000  61.7240000  79.6010000  72.3090000
  81.0790000  88.5450000  74.5430000  81.4850000  87.7770000  74.1420000
  81.8000000  88.9970000  74.9800000  86.6560000  32.0410000  75.9220000
  85.9260000  32.6060000  75.6700000  86.3190000  31.1510000  75.8160000
  36.1320000  74.1830000  80.3090000  35.9520000  73.7050000  81.1180000
  35.4930000  74.8960000  80.3030000  67.9370000  65.0100000  66.9880000
  68.0390000  65.5100000  67.7980000  68.0060000  64.0950000  67.2590000
  35.5760000  53.1900000  80.6110000  35.1730000  54.0560000  80.6710000
  34.8370000  52.5860000  80.5310000  79.4240000  79.8060000  68.4840000
  80.1310000  79.6240000  67.8650000  78.8310000  80.3880000  68.0070000
  72.2410000  61.5720000  63.2760000  71.5930000  62.1470000  62.8680000
  72.1240000  60.7290000  62.8350000  72.5710000  57.4320000  96.5000000
  73.2390000  58.1170000  96.5000000  71.7390000  57.9060000  96.5000000
  61.4820000  44.1630000  75.2280000  62.3060000  44.1580000  75.7150000
  61.3710000  45.0740000  74.9540000  52.5230000  83.2840000  94.1360000
  53.2150000  83.4410000  93.4930000  52.0360000  82.5370000  93.7860000
  78.3400000  46.9520000  80.5730000  78.8120000  46.2420000  80.1390000
  79.0040000  47.6260000  80.7230000  54.9210000  85.9120000  82.5440000
  54.0250000  85.8900000  82.8790000  55.4050000  86.4340000  83.1850000
  43.2870000  37.0910000  79.7820000  42.3980000  37.4350000  79.8690000
  43.1670000  36.1910000  79.4780000  36.3560000  70.0370000  73.0200000
  35.7510000  70.3030000  73.7130000  35.9480000  69.2640000  72.6300000
  75.5380000  79.2350000  79.2900000  74.6040000  79.4340000  79.2240000
  75.9530000  80.0810000  79.4590000  71.2620000  54.4550000  82.4450000
  71.2310000  55.3970000  82.6140000  70.5230000  54.0990000  82.9390000
  60.1760000  35.4690000  69.2260000  60.0100000  36.0770000  68.5060000
  59.7800000  35.8880000  69.9900000  41.6280000  86.9890000  67.1910000
  42.5300000  87.3070000  67.2020000  41.7100000  86.0350000  67.1690000
  78.1330000  37.1570000  71.4040000  77.2150000  37.3610000  71.2290000
  78.1370000  36.2200000  71.6000000  84.3810000  49.2130000  83.7830000
  83.7510000  49.9320000  83.7450000  85.0410000  49.4370000  83.1260000
  80.9440000  44.1980000  62.7500000  80.1240000  43.7130000  62.6610000
  80.6750000  45.1150000  62.8090000  40.8560000  71.5500000  79.4390000
  40.3170000  72.1170000  78.8880000  41.1370000  70.8450000  78.8550000
  32.9080000  88.4140000  87.9410000  33.6650000  89.0000000  87.9410000
  32.1520000  89.0000000  87.9850000  40.8500000  38.8560000  77.7970000
  40.5150000  38.2090000  78.4190000  40.0690000  39.1860000  77.3510000
  34.3900000  67.7800000  76.6720000  34.4360000  66.8370000  76.8300000
  33.4650000  67.9480000  76.4880000  64.4470000  74.0790000  80.9510000
  64.6960000  73.4510000  80.2730000  63.7730000  74.6210000  80.5400000
  45.2350000  42.7990000  91.4070000  45.8260000  43.0410000  92.1200000
  45.2630000  43.5460000  90.8080000  31.0000000  73.7800000  66.3340000
  31.0990000  72.9330000  66.7680000  31.0090000  74.4180000  67.0480000
  56.4010000  55.8370000  61.0820000  57.0060000  56.5750000  61.0120000
  56.9680000  55.0690000  61.1610000  74.0180000  31.0200000  86.8180000
  73.8710000  31.8960000  86.4610000  74.9530000  31.0000000  87.0260000
  83.2540000  67.5990000  56.4960000  83.8410000  67.7480000  57.2370000
  83.6650000  66.8870000  56.0040000  44.3900000  40.1160000  63.0200000
  45.0850000  40.5830000  63.4840000  44.6450000  39.1950000  63.0700000
  37.0410000  69.6600000  96.5000000  37.6060000  70.3610000  96.1760000
  37.5990000  68.8820000  96.4970000  39.0800000  65.5610000  62.9120000
  39.1160000  65.8400000  61.9970000  39.5770000  66.2290000  63.3860000
  47.3830000  45.4960000  86.0010000  46.7350000  46.2010000  86.0020000
  48.1410000  45.8690000  85.5520000  55.8410000  81.7540000  91.2970000
  56.7460000  82.0640000  91.2880000  55.3520000  82.4510000  91.7360000
  43.5240000  64.6990000  78.7450000  42.5860000  64.8190000  78.8920000
  43.8730000  65.5890000  78.6820000  34.3620000  50.6120000  64.0540000
  34.0840000  50.1010000  63.2940000  34.6980000  49.9610000  64.6710000
  66.1070000  83.4830000  56.8160000  65.8430000  83.0670000  57.6360000
  65.4800000  83.1580000  56.1690000  88.1460000  31.1210000  90.1540000
  88.3270000  31.0470000  91.0910000  89.0000000  31.0140000  89.7350000
  39.6540000  85.8640000  65.3820000  39.5590000  86.7980000  65.2000000
  38.9410000  85.6640000  65.9890000  51.9680000  89.0000000  86.1220000
  52.7940000  88.9490000  85.6420000  51.2950000  89.0000000  85.4420000
  51.1170000  66.3740000  90.2000000  51.8530000  66.9110000  90.4930000
  50.5940000  66.9610000  89.6550000  74.1360000  63.2630000  66.5980000
  73.7270000  62.5230000  66.1490000  73.4570000  63.5910000  67.1880000
  52.8160000  58.1960000  57.9540000  52.1580000  58.4370000  57.3020000
  52.4760000  58.5460000  58.7780000  44.3060000  65.9750000  88.0830000
  43.6010000  65.5550000  88.5750000  43.8900000  66.2760000  87.2750000
  62.0930000  50.3810000  78.6100000  61.7980000  49.6140000  79.1010000
  62.5850000  50.9000000  79.2470000  45.2210000  68.7290000  95.9320000
  45.9130000  69.0680000  96.4990000  44.7160000  68.1410000  96.4950000
  85.4000000  87.0120000  85.2000000  86.2980000  87.2030000  84.9330000
  85.3990000  87.1410000  86.1490000  62.8860000  34.7720000  96.5000000
  63.2290000  33.9410000  96.1700000  62.6140000  35.2480000  95.7150000
  79.2780000  88.8380000  87.3070000  79.2770000  89.0000000  88.2500000
  80.1940000  88.9400000  87.0470000  36.8490000  83.0130000  56.0050000
  36.1260000  83.6410000  56.0080000  37.6380000  83.5560000  56.0000000
  47.4480000  64.1820000  81.5190000  48.1650000  64.8000000  81.3790000
  46.7360000  64.7170000  81.8710000  89.0000000  56.9100000  76.8890000
  88.9460000  56.0850000  77.3730000  88.9580000  57.5870000  77.5640000
  65.8060000  79.5960000  81.1320000  65.0870000  78.9830000  80.9790000
  65.9430000  79.5750000  82.0790000  75.1750000  68.8280000  96.4940000
  74.4780000  68.1720000  96.4880000  75.9850000  68.3170000  96.5000000
  42.9890000  39.7540000  85.5400000  43.2610000  40.6560000  85.3740000
  43.8050000  39.2520000  85.5340000  43.5390000  79.7170000  76.5980000
  42.6330000  79.4090000  76.5780000  44.0570000  78.9260000  76.7490000
  49.0770000  35.8540000  77.0280000  49.2380000  35.3600000  76.2240000
  48.2420000  35.5170000  77.3530000  65.2580000  74.8460000  60.2480000
  64.7590000  75.6240000  59.9980000  66.1130000  75.1850000  60.5160000
  60.3650000  86.6970000  58.3120000  60.7080000  86.6230000  59.2020000
  60.0940000  85.8070000  58.0840000  54.0070000  43.3700000  90.3520000
  54.3470000  43.6880000  91.1890000  54.6500000  43.6610000  89.7060000
  40.6410000  63.4170000  56.6680000  41.3700000  63.0120000  56.1970000
  39.9670000  63.5470000  56.0000000  54.1940000  72.7220000  93.5370000
  53.6090000  72.9060000  94.2710000  54.7830000  72.0420000  93.8640000
  75.2960000  34.1060000  88.6680000  75.5250000  34.0570000  89.5960000
  75.2450000  35.0440000  88.4830000  46.9620000  73.7170000  88.1110000
  47.5420000  74.3030000  88.5960000  46.2010000  74.2560000  87.8940000
  31.4690000  82.1150000  78.2280000  31.0000000  82.4300000  77.4560000
  31.1290000  81.2310000  78.3720000  52.0600000  66.5770000  87.2800000
  52.6070000  66.5390000  86.4950000  52.6240000  66.2520000  87.9810000
  41.5480000  83.2890000  67.1780000  40.6910000  83.6940000  67.0510000
  41.6870000  83.3110000  68.1250000  63.1540000  54.3690000  96.4430000
  62.2680000  54.0120000  96.4990000  63.0270000  55.3160000  96.3760000
  45.4540000  78.3600000  96.4910000  45.3920000  79.3140000  96.4810000
  46.3940000  78.1800000  96.5000000  53.7640000  81.6070000  80.8930000
  53.1600000  82.3240000  81.0900000  54.2570000  81.4790000  81.7030000
  61.4890000  88.9580000  75.1620000  60.5510000  89.0000000  74.9730000
  61.9070000  88.9470000  74.3000000  42.4260000  31.0520000  68.3500000
  41.7640000  31.0000000  69.0390000  43.2610000  31.0000000  68.8160000
  70.5820000  76.6850000  69.7770000  71.2870000  76.1480000  70.1370000
  70.7240000  76.6620000  68.8300000  37.7930000  57.1810000  59.3460000
  37.1950000  57.7200000  59.8640000  38.4180000  57.8040000  58.9750000
  37.2590000  72.7970000  56.0020000  36.5830000  73.4730000  56.0150000
  38.0840000  73.2830000  56.0000000  88.2600000  61.4490000  74.1600000
  89.0000000  60.8790000  73.9500000  88.5780000  62.3330000  73.9750000
  76.8970000  34.3620000  65.8880000  77.0550000  34.7020000  65.0070000
  76.7760000  33.4210000  65.7640000  44.6320000  62.2020000  56.2260000
  43.7040000  62.1400000  56.0000000  44.8640000  61.3240000  56.5300000
  67.0600000  88.0260000  92.1120000  66.8260000  87.5230000  91.3330000
  66.9760000  88.9410000  91.8410000  31.0000000  51.4610000  72.6230000
  31.4470000  51.3400000  73.4610000  31.6450000  51.8990000  72.0680000
  57.5000000  53.4190000  83.7820000  56.6980000  53.1350000  84.2200000
  57.8180000  52.6360000  83.3330000  31.0000000  40.2870000  92.0370000
  31.0000000  40.1670000  91.0880000  31.2270000  39.4260000  92.3890000
  83.2250000  35.8170000  61.2250000  83.5320000  35.2000000  60.5600000
  84.0180000  36.2660000  61.5190000  31.5800000  78.9620000  75.6930000
  31.0030000  79.6230000  76.0740000  31.0000000  78.4140000  75.1630000
  51.6680000  57.4210000  96.3500000  51.1400000  58.2180000  96.3130000
  52.5610000  57.7320000  96.5000000  44.3860000  47.4500000  85.3800000
  44.0200000  46.6190000  85.6840000  44.1160000  47.5100000  84.4640000
  77.9060000  66.0400000  63.7240000  78.2000000  65.1300000  63.7670000
  78.7140000  66.5500000  63.6620000  41.2330000  72.0220000  73.3580000
  40.6370000  72.3500000  72.6850000  41.9370000  72.6690000  73.3910000
  31.7720000  73.7500000  69.6010000  31.0000000  73.1910000  69.5190000
  32.4800000  73.2420000  69.2020000  56.3890000  37.3460000  68.9220000
  57.1040000  36.8170000  69.2750000  56.7660000  37.7800000  68.1570000
  43.2660000  57.1710000  86.2030000  43.3610000  57.9390000  85.6390000
  42.6010000  57.4250000  86.8440000  87.2580000  45.6040000  63.1560000
  86.8800000  44.7500000  62.9490000  86.5370000  46.0970000  63.5480000
  76.2090000  86.7860000  83.4080000  75.5340000  86.2250000  83.0250000
  76.7300000  86.1960000  83.9520000  88.6810000  82.1810000  56.3630000
  88.4380000  83.0320000  55.9990000  89.0010000  82.3790000  57.2440000
  89.0000000  75.2850000  83.6680000  88.4760000  75.8000000  84.2810000
  88.6400000  75.4960000  82.8070000  83.0800000  70.5360000  84.3560000
  82.4430000  70.1250000  83.7730000  83.6950000  70.9770000  83.7680000
  49.7810000  85.9440000  58.2580000  50.4200000  86.6390000  58.4120000
  49.5970000  85.9910000  57.3190000  51.8050000  67.8070000  72.9200000
  52.2450000  68.4190000  72.3310000  51.5480000  67.0760000  72.3570000
  52.9870000  54.3250000  56.4920000  52.9030000  53.5080000  56.0000000
  52.4360000  54.9480000  56.0190000  55.7610000  41.2090000  82.5710000
  55.5660000  40.2930000  82.3720000  55.0640000  41.7020000  82.1390000
  58.1490000  63.2650000  78.2570000  58.3380000  64.1820000  78.0600000
  58.8860000  62.9790000  78.7970000  34.3720000  70.7580000  82.3940000
  34.5110000  71.6070000  81.9730000  33.6130000  70.3880000  81.9420000
  39.1510000  46.6510000  71.2070000  39.6530000  46.3360000  70.4560000
  39.4200000  47.5640000  71.3100000  58.5480000  82.7040000  63.8260000
  58.2450000  83.5400000  63.4740000  59.4640000  82.6460000  63.5530000
  34.7460000  46.3510000  61.6490000  34.2680000  46.0750000  62.4310000
  34.5620000  47.2880000  61.5740000  45.9950000  38.4430000  78.9440000
  45.2470000  38.7290000  79.4680000  45.8320000  37.5130000  78.7810000
  42.2380000  63.9990000  76.4860000  41.3580000  63.6740000  76.3000000
  42.4740000  64.5100000  75.7120000  79.1790000  86.2650000  56.9390000
  78.3460000  85.9260000  57.2660000  79.0360000  86.3890000  56.0000000
  43.1330000  88.2270000  89.2090000  42.5820000  87.7160000  88.6170000
  43.7620000  87.5940000  89.5570000  58.6640000  79.0500000  74.8340000
  58.8400000  78.1140000  74.9290000  59.5150000  79.4690000  74.9700000
  39.4860000  38.0780000  82.3060000  39.6780000  38.1440000  81.3710000
  38.5290000  38.0800000  82.3550000  79.0330000  58.0210000  68.0240000
  79.7700000  58.2570000  67.4610000  78.5320000  58.8320000  68.1150000
  36.0160000  31.0000000  92.4490000  35.3950000  31.7260000  92.3950000
  36.8410000  31.3660000  92.1290000  38.9620000  47.6830000  85.6350000
  39.1780000  47.1490000  84.8710000  38.1810000  48.1720000  85.3740000
  48.7950000  62.4330000  72.0840000  49.5900000  62.9450000  72.2330000
  48.5830000  62.5810000  71.1620000  47.3630000  65.4130000  64.1480000
  46.5900000  65.3570000  63.5870000  47.0230000  65.6970000  64.9970000
  35.5760000  66.9340000  70.5330000  35.5600000  66.0280000  70.8400000
  36.4700000  67.2310000  70.7060000  63.3130000  52.3050000  94.9910000
  63.8280000  51.6020000  94.5970000  62.4500000  51.9170000  95.1390000
  42.3210000  73.2900000  81.4250000  42.3580000  72.3460000  81.5790000
  42.4270000  73.3830000  80.4780000  57.1530000  39.7180000  87.1210000
  57.2190000  39.0250000  86.4640000  56.2390000  39.6920000  87.4060000
  63.8940000  37.9950000  83.7720000  63.4740000  37.4520000  84.4390000
  63.2040000  38.5920000  83.4810000  47.0610000  35.1730000  69.5750000
  46.3310000  35.7820000  69.4610000  47.7970000  35.7270000  69.8360000
  60.1550000  66.0640000  72.1260000  60.2260000  66.9040000  72.5790000
  59.3340000  66.1240000  71.6360000  40.4400000  86.4170000  56.0290000
  41.1530000  85.7830000  56.1030000  39.6460000  85.8820000  56.0000000
  32.8420000  66.3480000  65.4290000  32.5910000  66.8370000  64.6460000
  33.1790000  65.5160000  65.0940000  73.2130000  81.5630000  87.3230000
  72.6660000  80.7790000  87.3520000  73.9920000  81.3310000  87.8300000
  69.0410000  84.2720000  81.5620000  68.6920000  85.0690000  81.9610000
  68.3370000  83.6290000  81.6550000  42.9090000  36.3550000  71.5090000
  43.8620000  36.4410000  71.4690000  42.7090000  35.6370000  70.9070000
  80.8370000  37.5180000  70.3690000  81.7830000  37.6550000  70.3350000
  80.6680000  37.2300000  71.2670000  41.8030000  43.0740000  70.4880000
  42.2120000  42.6620000  69.7270000  42.4380000  42.9570000  71.1950000
  53.8740000  48.5820000  75.2420000  54.1870000  47.7350000  75.5580000
  53.3710000  48.3740000  74.4540000  53.9170000  83.4560000  61.4970000
  53.4160000  82.6400000  61.4990000  53.3120000  84.1100000  61.8500000
  54.7060000  31.0000000  72.6050000  54.2800000  31.4790000  73.3150000
  55.3450000  31.6180000  72.2480000  40.0110000  48.9530000  76.2110000
  40.2390000  49.4160000  77.0170000  40.6740000  48.2670000  76.1330000
  46.7640000  48.3540000  80.1410000  46.5910000  47.4180000  80.2460000
  45.9450000  48.7120000  79.7970000  73.8140000  45.6360000  69.5090000
  73.1700000  46.3170000  69.7020000  73.2900000  44.8720000  69.2640000
  68.4890000  52.0970000  65.4290000  68.9530000  52.4690000  66.1790000
  67.8560000  52.7720000  65.1790000  58.6420000  65.2520000  56.8550000
  58.2320000  65.3810000  56.0000000  58.0980000  64.5930000  57.2860000
  46.7590000  37.8400000  72.1930000  45.9620000  37.4140000  72.5090000
  47.4300000  37.5970000  72.8310000  54.3590000  41.5430000  66.3540000
  53.6490000  42.0510000  66.7450000  54.4550000  41.9020000  65.4720000
  77.8720000  81.3060000  80.4920000  78.5770000  81.8240000  80.8780000
  78.1440000  80.3970000  80.6200000  60.3220000  31.1930000  80.2630000
  60.1590000  31.0000000  81.1870000  60.8710000  31.9770000  80.2750000
  70.4240000  74.0850000  66.6260000  70.0000000  74.8080000  67.0890000
  69.7020000  73.6060000  66.2180000  76.5390000  47.7860000  59.9370000
  77.2200000  48.3490000  59.5690000  76.8980000  47.4900000  60.7740000
  56.0180000  76.0760000  70.9960000  55.7660000  75.9250000  71.9070000
  56.9510000  76.2840000  71.0360000  38.9760000  47.0250000  96.5000000
  38.3630000  46.2900000  96.5000000  38.4170000  47.8030000  96.5000000
  60.0630000  40.1520000  86.2570000  59.2180000  40.4150000  85.8940000
  59.8440000  39.5320000  86.9530000  56.2880000  71.3260000  96.4980000
  55.4420000  71.7720000  96.4900000  56.0690000  70.3940000  96.5000000
  82.0220000  71.1310000  93.1680000  81.8140000  71.5370000  94.0090000
  82.0950000  70.1970000  93.3640000  56.0880000  60.2460000  92.3130000
  56.7870000  59.8100000  91.8270000  55.5080000  59.5360000  92.5890000
  50.5580000  81.8810000  65.5530000  50.9570000  82.1750000  66.3720000
  50.3160000  82.6890000  65.1000000  66.4500000  55.5350000  96.5000000
  67.0060000  54.7560000  96.5000000  65.5560000  55.1930000  96.4930000
  83.7090000  68.5670000  71.5930000  84.1510000  67.7230000  71.6870000
  84.2240000  69.0350000  70.9360000  50.2540000  39.1030000  66.9640000
  50.7300000  39.7710000  66.4710000  50.6620000  39.1070000  67.8300000
  69.0250000  88.8300000  64.8870000  69.4620000  88.8320000  64.0360000
  68.0930000  88.8910000  64.6780000  48.5190000  31.0020000  75.8500000
  48.0060000  31.0000000  76.6580000  48.6410000  31.9290000  75.6450000
  61.3250000  45.7590000  91.6080000  61.9740000  45.7690000  90.9050000
  61.4910000  44.9400000  92.0750000  38.7570000  76.4430000  72.4260000
  38.4670000  76.0210000  71.6170000  38.7790000  77.3770000  72.2150000
  54.6550000  55.6690000  71.7590000  53.8640000  55.9310000  72.2310000
  55.3510000  56.2020000  72.1440000  61.3860000  84.5440000  80.8770000
  61.3720000  84.2960000  79.9530000  61.2170000  83.7270000  81.3470000
  71.5830000  61.7510000  73.1300000  71.2750000  62.5180000  72.6470000
  71.9530000  62.1090000  73.9380000  81.8500000  53.1950000  77.7380000
  81.6940000  52.2680000  77.9200000  82.7890000  53.3130000  77.8830000
  45.2480000  78.6350000  86.8860000  44.8960000  77.8320000  87.2680000
  45.5470000  78.3750000  86.0140000  80.4780000  84.3630000  89.1510000
  81.4310000  84.2980000  89.1010000  80.3150000  84.9460000  89.8930000
  61.4790000  33.2340000  71.0650000  60.6440000  33.6690000  70.8970000
  61.7650000  33.5810000  71.9100000  89.0000000  78.4400000  82.8870000
  88.1990000  77.9540000  82.6940000  88.7100000  79.3460000  83.0000000
  84.4980000  80.0240000  85.6490000  84.1680000  79.3190000  86.2050000
  84.5800000  79.6280000  84.7810000  65.9260000  78.6430000  75.4280000
  65.0400000  78.3740000  75.6670000  66.0340000  79.5030000  75.8340000
  79.8300000  86.0670000  60.4800000  79.4850000  86.2770000  59.6120000
  80.2930000  86.8600000  60.7520000  83.3190000  41.6330000  95.9740000
  83.1980000  42.4250000  96.4970000  83.9140000  41.0910000  96.4920000
  88.5930000  72.7640000  67.8860000  88.9490000  71.9270000  68.1840000
  88.9980000  72.9060000  67.0300000  84.9700000  73.5200000  96.4170000
  84.3100000  72.8320000  96.5000000  85.8030000  73.0500000  96.3730000
  83.9480000  50.1440000  68.1380000  84.8560000  49.8570000  68.0470000
  83.6980000  50.4310000  67.2600000  73.5900000  38.7970000  65.6780000
  73.7220000  39.4670000  66.3480000  72.6980000  38.4820000  65.8260000
  45.2510000  35.7430000  83.4150000  45.0890000  34.9060000  82.9810000
  44.3800000  36.1190000  83.5440000  43.1700000  54.7850000  76.3570000
  44.0310000  55.1870000  76.2420000  43.3450000  53.8440000  76.3810000
  67.4760000  59.5540000  58.4630000  67.6040000  58.6060000  58.4590000
  66.5250000  59.6680000  58.4610000  54.1810000  80.9720000  87.5170000
  55.0070000  81.1890000  87.9470000  54.2040000  80.0200000  87.4180000
  40.8820000  69.5270000  71.2820000  41.2450000  69.6890000  72.1530000
  40.1160000  70.0990000  71.2310000  35.7540000  40.4320000  89.6510000
  34.8110000  40.5210000  89.7890000  35.8550000  39.5860000  89.2140000
  77.0910000  77.2400000  58.3060000  76.6840000  76.3740000  58.3350000
  76.3540000  77.8520000  58.3220000  48.1430000  54.2090000  68.3810000
  47.3700000  54.7720000  68.3790000  47.7960000  53.3250000  68.2550000
  48.6790000  41.0370000  64.1260000  49.4220000  41.6000000  64.3470000
  48.0930000  41.6010000  63.6200000  80.0460000  80.7860000  95.3240000
  79.5630000  81.5950000  95.1540000  80.2490000  80.8190000  96.2590000
  48.7390000  57.3390000  83.8390000  49.6160000  57.7010000  83.7110000
  48.1680000  58.1060000  83.8840000  72.0810000  59.8520000  84.2130000
  72.8870000  60.2720000  83.9140000  71.6840000  59.5010000  83.4150000
  85.4560000  77.0700000  83.3120000  85.7890000  77.9660000  83.3570000
  86.2410000  76.5230000  83.3010000  84.3050000  34.9790000  92.7650000
  85.0130000  34.4200000  92.4450000  84.1230000  35.5750000  92.0380000
  36.8530000  47.9210000  79.8210000  37.0110000  47.3710000  80.5890000
  36.5910000  48.7680000  80.1830000  85.9970000  88.3990000  70.3400000
  85.3150000  89.0000000  70.0400000  86.5980000  88.9500000  70.8420000
  33.9850000  66.8010000  68.5650000  33.2010000  66.9190000  68.0290000
  34.5700000  67.5100000  68.2960000  76.0890000  45.6430000  77.3600000
  75.4910000  46.3490000  77.1160000  75.5240000  44.8780000  77.4730000
  31.6020000  75.8160000  80.3340000  31.0000000  76.4880000  80.6530000
  31.0330000  75.1010000  80.0470000  77.1790000  37.9870000  58.9340000
  77.6080000  38.4840000  58.2380000  76.5770000  38.6120000  59.3390000
  54.3400000  57.3650000  60.6120000  53.5360000  56.8790000  60.7940000
  54.1040000  58.2820000  60.7540000  34.1860000  38.3830000  95.5570000
  33.5290000  37.9450000  95.0150000  34.0500000  38.0240000  96.4340000
  44.9960000  31.8480000  95.8010000  44.2390000  32.4280000  95.7250000
  44.7290000  31.1870000  96.4410000  51.7210000  58.6080000  72.2510000
  50.9570000  58.3680000  72.7740000  51.6340000  58.0920000  71.4480000
  85.8710000  41.6620000  90.5070000  86.0990000  41.4090000  91.4020000
  84.9540000  41.4050000  90.4110000  65.2030000  51.4110000  64.6750000
  65.3690000  51.5140000  65.6120000  65.1020000  52.3060000  64.3490000
  88.2130000  41.4550000  84.7630000  88.5410000  40.5590000  84.7030000
  89.0000000  41.9950000  84.8360000  35.1080000  41.7360000  87.1570000
  35.9280000  41.2420000  87.1820000  34.4260000  41.0660000  87.1040000
  44.0710000  55.2820000  72.7830000  43.7740000  55.1800000  73.6870000
  43.5400000  56.0000000  72.4360000  77.7710000  81.4620000  88.2200000
  76.8950000  81.7530000  88.4750000  78.3480000  81.8180000  88.8960000
  31.0000000  79.3330000  64.1260000  31.7700000  79.1950000  64.6770000
  31.0010000  78.5890000  63.5230000  78.2400000  39.7300000  60.8340000
  77.6690000  39.5770000  61.5860000  78.9970000  40.1900000  61.1970000
  35.6290000  35.4650000  91.8540000  35.8950000  34.5670000  91.6600000
  34.8450000  35.6030000  91.3220000  31.0170000  55.1790000  89.1590000
  31.0000000  54.2230000  89.1960000  31.9480000  55.4030000  89.1610000
  73.3560000  65.6430000  78.5020000  73.7340000  64.8040000  78.2400000
  74.1100000  66.2210000  78.6210000  74.6100000  88.9710000  65.9640000
  74.3360000  88.0630000  66.0850000  75.5560000  88.9200000  65.8240000
  33.9160000  43.0950000  85.1090000  34.3280000  42.2730000  84.8440000
  33.2710000  42.8380000  85.7690000  39.5790000  62.7320000  94.5530000
  39.9710000  61.8830000  94.3520000  39.0110000  62.5630000  95.3050000
  39.8370000  60.5170000  83.1420000  40.5280000  60.0010000  83.5570000
  39.6570000  61.2220000  83.7650000  33.0180000  37.7730000  90.4200000
  33.8510000  37.6510000  89.9650000  32.9730000  38.7140000  90.5890000
  88.2750000  79.5220000  59.1210000  89.0000000  78.8980000  59.1540000
  87.9860000  79.6020000  60.0310000  60.3530000  69.0900000  83.6080000
  59.9460000  69.1790000  82.7470000  60.7270000  68.2080000  83.6070000
  64.3720000  74.0020000  56.0290000  63.4210000  73.9360000  56.1140000
  64.5450000  74.9440000  56.0000000  37.1370000  33.4860000  76.6800000
  36.2790000  33.7610000  77.0050000  36.9470000  33.0240000  75.8640000
  43.7240000  65.2420000  63.4570000  43.5000000  66.1460000  63.2360000
  43.7700000  64.7940000  62.6120000  36.3380000  79.5480000  62.8540000
  36.1180000  78.9410000  62.1480000  35.6220000  80.1840000  62.8560000
  88.0490000  52.3750000  87.5700000  87.8430000  51.4410000  87.5360000
  89.0000000  52.4080000  87.6750000  31.0000000  37.6300000  96.3140000
  31.0550000  38.5670000  96.5000000  31.0820000  37.5690000  95.3610000
  51.3850000  31.0000000  77.7810000  51.2040000  31.6800000  78.4290000
  50.6240000  31.0130000  77.2000000  63.0930000  44.9450000  80.7180000
  63.8240000  44.4080000  80.4130000  62.3230000  44.5680000  80.2900000
  86.5700000  69.6820000  72.9380000  86.4640000  70.5510000  73.3240000
  85.7950000  69.1970000  73.2200000  78.1190000  37.6630000  65.2960000
  78.5410000  36.8400000  65.5420000  77.9260000  38.0920000  66.1300000
  34.3860000  67.6300000  96.4960000  35.3420000  67.6830000  96.4720000
  34.1980000  66.6910000  96.5000000  68.5700000  72.1900000  63.8640000
  69.1510000  71.7980000  64.5170000  68.0610000  72.8370000  64.3530000
  55.3230000  73.5810000  79.9590000  55.1270000  72.6790000  80.2120000
  54.8690000  73.7000000  79.1240000  59.7380000  71.3900000  84.4100000
  60.4640000  71.4970000  85.0240000  59.4760000  72.2850000  84.1910000
  43.4170000  88.6960000  56.6030000  44.1730000  88.8470000  57.1690000
  43.7010000  88.0080000  56.0000000  46.1190000  73.3340000  93.1770000
  45.4520000  74.0150000  93.2660000  45.9490000  72.7350000  93.9040000
  42.0100000  75.8530000  59.1900000  41.1080000  75.7110000  59.4760000
  42.0250000  76.7600000  58.8830000  48.5090000  48.1300000  62.7900000
  47.6090000  48.3420000  62.5430000  48.4390000  47.7820000  63.6790000
  31.0000000  74.3170000  60.2170000  31.2080000  74.7890000  59.4110000
  31.0000000  73.3940000  59.9620000  57.7490000  60.8760000  77.6240000
  58.6020000  61.0060000  77.2120000  57.6770000  59.9270000  77.7330000
  34.2930000  48.1160000  89.5660000  33.3870000  48.0020000  89.2790000
  34.3640000  47.5810000  90.3560000  46.8860000  86.5430000  62.1260000
  46.1130000  86.6310000  62.6820000  47.6170000  86.8050000  62.6860000
  66.3890000  84.5830000  76.0330000  65.7140000  83.9680000  76.3200000
  67.1920000  84.2690000  76.4510000  74.3570000  60.3720000  85.9660000
  75.0270000  59.6880000  85.9670000  73.6220000  59.9880000  86.4460000
  44.5760000  33.0340000  62.6120000  44.1450000  32.7970000  63.4330000
  45.1910000  33.7260000  62.8550000  67.0370000  56.4150000  68.1080000
  66.0910000  56.3470000  67.9810000  67.1830000  56.0990000  69.0000000
  59.3690000  63.0650000  64.6730000  58.8300000  63.6400000  65.2160000
  58.7390000  62.5770000  64.1420000  66.2220000  70.6800000  65.1510000
  65.3880000  71.0030000  64.8090000  65.9880000  70.2130000  65.9530000
  57.8840000  80.9650000  89.3520000  58.6430000  81.5480000  89.3210000
  57.4420000  81.1020000  88.5140000  76.5740000  58.3460000  91.3240000
  75.9170000  59.0300000  91.4490000  77.3640000  58.6930000  91.7390000
  84.4170000  47.0950000  70.1750000  83.7340000  47.6940000  69.8740000
  85.1910000  47.6490000  70.2810000  76.6600000  43.3920000  93.1870000
  76.2080000  42.9350000  92.4770000  76.3670000  42.9470000  93.9830000
  73.5750000  71.0740000  86.3780000  74.1210000  70.3090000  86.5580000
  73.3940000  71.4480000  87.2410000  83.5890000  44.1550000  80.7260000
  83.0120000  44.8000000  80.3180000  83.1850000  43.9750000  81.5750000
  65.9830000  35.4670000  92.0210000  65.8860000  34.5620000  92.3170000
  65.5700000  35.9900000  92.7090000  73.4100000  73.3610000  93.5620000
  73.4580000  74.2800000  93.8250000  72.7500000  73.3440000  92.8690000
  72.0700000  33.2820000  76.1700000  71.5090000  32.5400000  76.3950000
  71.4610000  33.9870000  75.9500000  41.2700000  37.7480000  56.0000000
  41.1130000  36.9170000  56.4470000  42.0780000  38.0820000  56.3910000
  73.9360000  60.6370000  72.8960000  74.3280000  61.0170000  73.6830000
  74.1710000  61.2450000  72.1940000  35.5150000  44.4900000  93.4040000
  35.2860000  45.4190000  93.3780000  34.7140000  44.0380000  93.1380000
  31.6020000  31.0000000  63.6080000  31.0000000  31.1180000  64.3430000
  31.0420000  31.0250000  62.8320000  77.2460000  82.0020000  91.7210000
  78.1300000  81.8570000  91.3860000  76.6700000  81.6930000  91.0200000
  88.4170000  31.7550000  73.7390000  89.0000000  32.4700000  73.9920000
  89.0000000  31.0090000  73.5950000  74.1900000  89.0000000  83.2780000
  75.0420000  88.9270000  82.8480000  74.0150000  88.1210000  83.6160000
  71.2270000  69.1300000  60.0150000  71.7720000  69.9150000  59.9560000
  71.8380000  68.4320000  60.2530000  41.5230000  68.2890000  87.0660000
  41.0640000  68.7730000  86.3790000  41.7840000  67.4680000  86.6480000
  71.1780000  33.5630000  91.8790000  70.9440000  33.0100000  91.1340000
  72.1320000  33.5000000  91.9340000  35.2930000  31.0100000  95.7150000
  34.7230000  31.1300000  94.9550000  34.6960000  31.0000000  96.4630000
  33.6520000  70.8110000  96.5000000  34.0990000  71.6480000  96.3810000
  34.3310000  70.1530000  96.3490000  35.6660000  62.9710000  56.0310000
  36.5740000  62.6700000  56.0000000  35.5190000  63.1970000  56.9500000
  47.0850000  48.5800000  71.5830000  47.8480000  48.5650000  72.1610000
  46.4740000  49.1830000  72.0080000  58.4830000  43.0240000  61.6350000
  59.1000000  43.6410000  62.0270000  58.5840000  42.2230000  62.1490000
  84.8880000  70.7700000  94.5630000  84.1550000  70.5820000  95.1480000
  84.6520000  71.5960000  94.1400000  52.8120000  68.7240000  80.2760000
  52.9550000  67.7830000  80.3800000  52.4790000  69.0120000  81.1260000
  85.5880000  60.1200000  75.9130000  85.0360000  59.3410000  75.8530000
  85.0250000  60.7830000  76.3150000  81.5000000  55.4470000  90.3700000
  80.7070000  55.3720000  90.9000000  81.5610000  56.3780000  90.1580000
  43.5330000  48.9200000  66.5870000  44.3300000  49.4480000  66.6350000
  43.7490000  48.2130000  65.9780000  37.9960000  89.0000000  80.4000000
  38.8000000  88.9850000  80.9190000  37.2910000  88.9800000  81.0480000
  75.8410000  68.7880000  89.2260000  76.0180000  67.8630000  89.3950000
  74.9370000  68.9160000  89.5120000  88.5620000  58.6140000  87.2460000
  88.7460000  58.8090000  88.1640000  87.6300000  58.3930000  87.2300000
  63.4790000  50.6460000  68.3410000  63.3760000  49.9600000  69.0000000
  62.7790000  50.4800000  67.7100000  82.3310000  86.5900000  85.2780000
  82.4360000  86.8300000  84.3580000  81.4380000  86.8600000  85.4960000
  80.4840000  64.0300000  69.9400000  81.3470000  64.2660000  70.2790000
  80.6300000  63.2160000  69.4570000  51.8150000  47.5100000  61.6910000
  51.2870000  48.2660000  61.4350000  51.9590000  47.0310000  60.8740000
  44.2260000  44.7690000  81.4550000  43.6080000  44.0380000  81.4610000
  45.0670000  44.3690000  81.2330000  56.6070000  34.1190000  96.5000000
  56.3990000  34.3520000  95.5960000  57.0930000  33.2970000  96.4300000
  66.8010000  61.1130000  63.0100000  67.7330000  61.2730000  63.1580000
  66.4980000  61.8840000  62.5300000  66.1580000  85.9920000  88.7210000
  66.1650000  85.7890000  89.6570000  67.0610000  86.2390000  88.5220000
  47.9260000  60.7420000  76.0460000  47.0650000  61.1010000  75.8320000
  48.1030000  61.0560000  76.9330000  62.0310000  61.5430000  71.6370000
  62.9350000  61.8410000  71.5420000  62.1060000  60.6540000  71.9850000
  65.9360000  80.5800000  96.4450000  66.8670000  80.7840000  96.3680000
  65.5050000  81.4350000  96.4850000  62.2140000  32.2170000  78.1810000
  61.4930000  31.6690000  77.8710000  62.7710000  31.6210000  78.6820000
  69.0680000  87.0110000  70.8040000  69.1000000  87.9250000  70.5220000
  69.9280000  86.8510000  71.1940000  44.3180000  67.2710000  81.5840000
  44.4760000  67.0380000  80.6690000  44.6470000  66.5220000  82.0820000
  65.1640000  33.3790000  79.7690000  64.8120000  33.2240000  78.8930000
  66.1060000  33.4840000  79.6340000  58.2350000  41.8370000  82.8210000
  58.5710000  42.4440000  82.1610000  58.8340000  41.9330000  83.5620000
  57.7430000  61.4520000  96.5000000  56.8730000  61.8280000  96.3660000
  57.6120000  60.5070000  96.4170000  56.7130000  43.0300000  64.6140000
  56.3310000  43.5480000  65.3230000  56.8000000  43.6470000  63.8860000
  80.3710000  85.3750000  83.4590000  80.3720000  86.1770000  82.9360000
  79.7630000  85.5560000  84.1760000  72.3150000  61.1040000  77.3100000
  72.0170000  61.8700000  77.8010000  71.6460000  60.4390000  77.4740000
  37.5430000  31.1280000  74.0680000  38.1650000  31.0000000  74.7840000
  38.0620000  31.0020000  73.2740000  31.8690000  39.3560000  82.7780000
  31.0050000  39.7170000  82.5810000  32.4340000  40.1230000  82.8730000
  69.4590000  63.9320000  70.1720000  68.7610000  64.5840000  70.2320000
  70.0410000  64.1350000  70.9050000  58.1130000  72.4770000  69.5210000
  57.4440000  71.8500000  69.7950000  57.8230000  72.7760000  68.6590000
  58.0120000  64.3140000  72.7450000  58.5980000  64.3190000  73.5020000
  57.1490000  64.1180000  73.1110000  63.8930000  67.7210000  79.6040000
  64.7470000  68.0580000  79.8740000  64.0220000  67.4370000  78.6990000
  78.8050000  56.7500000  74.6590000  78.4700000  57.4120000  74.0560000
  78.9300000  57.2180000  75.4850000  82.1200000  86.5690000  58.7650000
  82.4820000  85.7640000  58.3940000  81.5160000  86.8910000  58.0960000
  86.6040000  65.3480000  56.0570000  86.7360000  66.2940000  55.9990000
  85.6530000  65.2380000  56.0610000  62.4280000  85.3130000  87.9080000
  62.6460000  84.5150000  87.4270000  61.4770000  85.3930000  87.8220000
  54.6180000  53.2440000  88.2840000  54.9430000  53.1840000  89.1820000
  54.1440000  52.4230000  88.1450000  42.5340000  78.4510000  68.7350000
  42.0670000  77.7000000  69.1000000  43.4600000  78.2260000  68.8260000
  78.7170000  45.1850000  84.5080000  78.9150000  45.5300000  83.6380000
  77.7910000  45.3880000  84.6420000  73.4960000  69.0260000  78.4210000
  72.8960000  69.7220000  78.6900000  72.9290000  68.3550000  78.0410000
  55.3550000  32.5890000  65.5480000  55.2690000  33.5240000  65.7290000
  54.5950000  32.1910000  65.9730000  48.7970000  52.8530000  59.1280000
  48.3070000  53.1400000  59.8980000  48.2140000  53.0350000  58.3910000
  69.2070000  37.6300000  66.1520000  69.5800000  37.8080000  65.2890000
  69.9680000  37.4890000  66.7170000  42.6930000  88.9910000  80.1030000
  43.3100000  88.2610000  80.0690000  42.2840000  89.0000000  79.2370000
  37.0480000  68.0010000  75.0300000  36.8250000  67.5270000  75.8310000
  37.6530000  68.6850000  75.3170000  72.2210000  52.7060000  84.5930000
  71.5170000  53.1760000  85.0410000  72.0640000  51.7850000  84.8010000
  79.0710000  74.4580000  86.3410000  78.9890000  73.5050000  86.3270000
  78.4010000  74.7660000  85.7310000  36.4710000  48.8320000  82.6800000
  36.1480000  48.8200000  83.5800000  37.4230000  48.7790000  82.7660000
  49.3940000  82.7340000  91.8080000  50.3280000  82.8470000  91.9870000
  49.2670000  81.7850000  91.7880000  54.0710000  40.8630000  72.5790000
  53.7330000  40.8840000  71.6840000  55.0090000  41.0330000  72.4860000
  49.6850000  41.3270000  61.7110000  49.5430000  40.4060000  61.4920000
  50.5510000  41.3460000  62.1190000  43.3310000  32.9760000  81.2710000
  44.2570000  33.2000000  81.1810000  43.0010000  32.9520000  80.3720000
  45.4540000  49.9330000  85.4230000  45.5960000  49.7270000  84.5000000
  45.2790000  50.8750000  85.4350000  42.0040000  36.0090000  65.7140000
  41.4140000  36.6120000  65.2610000  42.3220000  36.5060000  66.4680000
  66.6150000  50.7300000  70.9230000  66.6880000  51.6660000  70.7370000
  65.7590000  50.4820000  70.5720000  61.6850000  56.4050000  56.0450000
  60.8430000  56.8580000  56.0000000  61.7720000  56.1520000  56.9650000
  86.3000000  38.9880000  96.4840000  86.3450000  39.9440000  96.4820000
  85.3630000  38.7920000  96.5000000  36.3880000  60.7050000  58.1960000
  36.9250000  59.9130000  58.1910000  37.0190000  61.4220000  58.1310000
  87.9020000  78.1650000  94.0850000  88.8190000  77.9210000  93.9590000
  87.4580000  77.8430000  93.3000000  34.7650000  43.1470000  59.2030000
  33.9050000  42.7780000  59.0030000  35.3270000  42.8470000  58.4880000
  43.2530000  70.6040000  73.9310000  43.6560000  71.1500000  74.6060000
  42.6240000  70.0610000  74.4070000  49.7910000  69.4160000  72.4070000
  50.0380000  69.8450000  71.5890000  49.4570000  68.5600000  72.1380000
  38.0650000  87.9430000  56.3190000  38.5310000  87.8050000  57.1430000
  37.8720000  88.8810000  56.3070000  73.8880000  85.2700000  56.0000000
  73.2230000  85.8220000  56.4100000  74.6900000  85.7920000  56.0360000
  65.7280000  50.2260000  96.3190000  65.4260000  51.1230000  96.4590000
  64.9600000  49.6830000  96.5000000  39.1310000  33.5390000  73.6020000
  39.6260000  33.3360000  72.8090000  38.2950000  33.8810000  73.2830000
  46.7180000  71.1880000  62.0480000  46.6450000  72.0010000  62.5490000
  47.5380000  70.7950000  62.3460000  57.7060000  82.5540000  93.9500000
  57.8960000  83.2300000  93.3000000  58.3400000  81.8600000  93.7670000
  69.3070000  40.6070000  86.7300000  69.9860000  41.1280000  86.3020000
  68.6810000  41.2530000  87.0590000  33.0290000  42.2520000  56.3550000
  32.0770000  42.3490000  56.3550000  33.1740000  41.3050000  56.3630000
  56.8760000  52.5760000  61.7370000  56.4390000  52.1740000  62.4880000
  56.7520000  51.9500000  61.0230000  67.2480000  52.5220000  87.2290000
  67.3970000  51.9280000  86.4940000  66.5500000  52.1050000  87.7360000
  74.7890000  48.8990000  87.3640000  75.5210000  48.4470000  86.9450000
  74.5830000  48.3620000  88.1300000  43.4560000  39.4790000  65.4790000
  42.8540000  39.6770000  66.1960000  43.3720000  38.5340000  65.3480000
  70.7370000  71.3290000  74.7660000  69.9940000  70.7330000  74.6670000
  71.3660000  71.0410000  74.1030000  40.0340000  39.1170000  85.4420000
  39.4320000  38.3780000  85.3560000  40.2420000  39.3630000  84.5400000
  79.8440000  51.5530000  56.1220000  79.6710000  51.4430000  57.0570000
  80.0230000  52.4880000  56.0200000  45.8000000  35.3710000  89.0380000
  45.5330000  35.4080000  89.9560000  44.9880000  35.2030000  88.5580000
  68.3080000  79.1660000  71.1440000  68.0900000  78.2400000  71.2460000
  67.6160000  79.6290000  71.6160000  50.7310000  82.2670000  77.2670000
  50.4620000  81.9740000  76.3970000  50.8340000  81.4600000  77.7720000
  74.2250000  35.7760000  96.4970000  74.4150000  34.8380000  96.5000000
  75.0860000  36.1950000  96.4960000  72.8320000  59.0570000  74.9310000
  72.1930000  59.7180000  74.6630000  72.5450000  58.7850000  75.8020000
  56.3860000  64.5620000  88.7460000  56.5570000  63.6230000  88.6730000
  56.9560000  64.8550000  89.4570000  84.5720000  55.9150000  77.7900000
  83.6720000  55.8680000  78.1120000  84.6470000  56.7930000  77.4130000
  58.8960000  59.6380000  80.0400000  58.9650000  60.5750000  79.8620000
  59.7410000  59.2790000  79.7690000  50.7110000  48.8800000  87.9770000
  50.2720000  49.2870000  88.7240000  50.8500000  47.9710000  88.2470000
  59.2430000  34.3450000  78.8300000  59.4970000  35.0560000  78.2420000
  59.5770000  33.5530000  78.4060000  82.3170000  60.2350000  81.9950000
  83.2130000  60.0920000  82.3010000  82.1530000  59.5120000  81.3880000
  34.0670000  50.1590000  84.8200000  33.2070000  49.9930000  84.4350000
  33.9490000  50.9580000  85.3340000  42.4440000  67.0430000  75.9110000
  42.9160000  66.7710000  76.6980000  42.7940000  67.9110000  75.7090000
  54.9650000  55.0290000  58.1180000  55.1800000  54.9810000  59.0490000
  54.3280000  55.7420000  58.0550000  55.8990000  48.0680000  88.6790000
  55.0500000  47.6290000  88.6330000  55.6860000  49.0020000  88.6940000
  32.9300000  62.2440000  58.0610000  32.0220000  62.5470000  58.0680000
  32.8640000  61.2890000  58.0630000  64.9480000  77.3280000  86.5520000
  65.3500000  77.0450000  87.3730000  65.2660000  78.2230000  86.4250000
  67.1490000  80.9990000  86.2550000  66.2340000  81.2210000  86.4260000
  67.1340000  80.0630000  86.0500000  48.7570000  49.3230000  82.7200000
  48.8700000  49.1560000  81.7840000  47.8350000  49.1260000  82.8880000
  46.3160000  34.1750000  95.6500000  46.6090000  34.9980000  95.2590000
  46.7540000  33.4960000  95.1350000  65.6760000  51.4960000  57.7090000
  65.3880000  51.0740000  56.9000000  64.8670000  51.6640000  58.1930000
  68.6150000  75.6540000  71.5810000  67.8450000  75.7620000  71.0220000
  69.1910000  75.0720000  71.0850000  53.2740000  81.0210000  76.1070000
  52.7110000  81.3570000  75.4090000  53.3680000  81.7560000  76.7140000
  59.5650000  70.2330000  68.5440000  59.0190000  70.6820000  67.8990000
  60.1980000  70.8940000  68.8240000  77.5160000  81.0040000  96.4610000
  77.8630000  80.1130000  96.5000000  76.5670000  80.8900000  96.4070000
  49.8110000  74.2850000  94.6080000  50.5640000  73.7980000  94.2720000
  50.1940000  74.9700000  95.1570000  61.4420000  48.2560000  91.6200000
  61.6650000  48.2440000  90.6890000  61.5940000  49.1620000  91.8920000
  57.5490000  68.5810000  88.2330000  56.9160000  69.0330000  88.7900000
  57.5010000  67.6650000  88.5080000  73.1220000  48.7270000  82.8210000
  73.6920000  49.4410000  83.1030000  72.7180000  49.0470000  82.0140000
  53.1280000  55.4240000  65.7980000  52.4660000  55.9860000  66.2000000
  53.3460000  54.7860000  66.4780000  70.4740000  64.5620000  83.2060000
  71.3700000  64.8920000  83.1390000  69.9660000  65.3120000  83.5170000
  49.7610000  82.6130000  89.3380000  49.6380000  81.6650000  89.2860000
  48.8990000  82.9780000  89.1380000  70.3310000  56.8110000  89.6320000
  69.8010000  56.2800000  90.2250000  71.0660000  56.2450000  89.3940000
  58.3970000  75.9870000  67.5130000  58.4300000  75.3740000  66.7780000
  59.0990000  76.6140000  67.3330000  75.3410000  75.7410000  86.3520000
  76.1660000  76.1420000  86.6260000  74.7060000  76.4580000  86.3770000
  74.9370000  37.7750000  90.1820000  75.4140000  38.3430000  89.5770000
  74.4940000  37.1410000  89.6170000  87.4990000  46.1680000  60.2850000
  86.8190000  45.5650000  60.5860000  87.0210000  46.8520000  59.8140000
  43.6610000  70.8940000  89.1650000  43.5600000  69.9420000  89.1520000
  42.7640000  71.2300000  89.1830000  59.1530000  85.1130000  67.9010000
  58.3100000  85.5520000  67.7850000  58.9420000  84.3130000  68.3830000
  35.5870000  60.1970000  81.7520000  35.4460000  59.2540000  81.8300000
  36.4700000  60.3370000  82.0960000  31.0000000  35.4650000  89.3890000
  31.0240000  34.7220000  88.7860000  31.8170000  35.9360000  89.2230000
  89.0020000  86.3210000  88.9260000  88.1100000  86.5770000  89.1570000
  88.9370000  85.3890000  88.7140000  53.0150000  65.4750000  57.9700000
  52.2260000  65.9620000  57.7310000  53.6380000  66.1480000  58.2440000
  46.9010000  56.3280000  56.4990000  46.2350000  55.9730000  57.0870000
  47.4320000  55.5710000  56.2530000  73.2900000  57.4990000  77.8320000
  74.0460000  57.3810000  78.4060000  72.8770000  56.6370000  77.7970000
  78.1820000  85.0690000  81.7780000  78.1350000  85.7540000  81.1120000
  77.4090000  84.5260000  81.6190000  33.2210000  76.3020000  88.8880000
  33.7590000  75.7770000  89.4810000  33.4080000  75.9480000  88.0180000
  65.7780000  37.7080000  89.5720000  65.7460000  37.2280000  88.7460000
  65.0870000  38.3670000  89.4940000  89.0000000  71.1810000  61.8630000
  88.8780000  70.3500000  62.3220000  88.9800000  70.9480000  60.9350000
  87.7590000  74.1650000  62.1870000  87.1680000  74.8970000  62.0140000
  88.6150000  74.5730000  62.3200000  69.4720000  80.1970000  73.4310000
  68.6680000  80.6640000  73.6560000  69.4750000  79.4330000  74.0080000
  64.7560000  61.4920000  91.1070000  64.5520000  60.5660000  90.9810000
  64.8270000  61.8450000  90.2190000  72.8520000  84.9610000  84.1360000
  72.3190000  85.7250000  84.3550000  72.8110000  84.9060000  83.1810000
  60.4810000  43.0090000  93.8390000  60.8990000  42.1540000  93.9470000
  61.1240000  43.6340000  94.1750000  36.4030000  86.2970000  84.3310000
  35.7360000  85.8710000  83.7920000  35.9060000  86.8380000  84.9450000
  42.2660000  38.9380000  90.8470000  42.8950000  39.3720000  90.2720000
  42.8060000  38.4360000  91.4580000  43.7270000  65.3320000  95.9080000
  44.4930000  65.6540000  96.3830000  42.9830000  65.5770000  96.4590000
  47.2620000  66.9690000  96.0460000  47.9810000  67.4190000  96.4890000
  47.1890000  66.1290000  96.5000000  72.4360000  54.3640000  58.7990000
  72.4010000  54.8090000  59.6460000  72.1110000  53.4810000  58.9790000
  60.9890000  74.0640000  68.1340000  60.7410000  74.6960000  67.4600000
  60.2200000  73.5020000  68.2310000  53.7690000  42.3910000  56.5780000
  53.3250000  41.7710000  56.0000000  54.3570000  42.8780000  56.0000000
  52.7010000  64.0070000  65.5270000  53.2090000  63.4690000  64.9200000
  53.2470000  64.7780000  65.6800000  45.9520000  81.7490000  72.6400000
  46.3600000  81.6140000  73.4950000  46.4440000  81.1820000  72.0470000
  59.2240000  56.1180000  96.1830000  58.9140000  55.3510000  95.7000000
  60.0930000  55.8690000  96.4970000  71.7610000  61.7120000  86.9720000
  71.1980000  61.1660000  86.4230000  71.2680000  61.8240000  87.7850000
  41.5390000  38.0620000  62.9690000  41.6730000  38.8380000  63.5130000
  42.0900000  38.2090000  62.2000000  68.9940000  63.3030000  77.2390000
  69.6640000  62.7050000  77.5700000  68.1870000  63.0210000  77.6700000
  61.0730000  39.1490000  81.7690000  61.3360000  39.0880000  80.8510000
  60.8140000  40.0640000  81.8840000  44.3380000  88.1850000  65.3890000
  45.0750000  87.7880000  64.9260000  44.1680000  89.0000000  64.9160000
  38.8740000  81.0090000  56.9010000  39.1370000  81.7560000  57.4380000
  38.9290000  81.3290000  56.0000000  77.9650000  39.7640000  69.9980000
  77.4660000  40.1290000  70.7280000  78.8810000  39.9260000  70.2290000
  83.2450000  63.5050000  82.4590000  82.6880000  62.9860000  83.0390000
  82.6520000  64.1480000  82.0680000  52.4620000  45.6760000  79.7690000
  53.0000000  46.0560000  79.0750000  52.8730000  45.9730000  80.5810000
  40.4840000  63.8930000  64.1410000  40.7990000  62.9970000  64.2600000
  41.1800000  64.3290000  63.6490000  44.9410000  36.9690000  86.3980000
  44.2170000  37.2390000  86.9620000  45.7260000  37.2790000  86.8500000
  45.2980000  63.6070000  89.3530000  45.1680000  62.9180000  90.0040000
  45.7500000  64.3050000  89.8290000  49.6850000  33.0780000  70.5000000
  48.7810000  32.8700000  70.2660000  49.7250000  34.0350000  70.4750000
  62.8990000  79.6210000  64.4380000  62.1120000  80.1560000  64.3310000
  62.7910000  79.2050000  65.2940000  85.5400000  50.2270000  90.9780000
  85.8950000  50.5860000  91.7910000  86.3120000  49.9660000  90.4740000
  45.1890000  53.7290000  84.2740000  44.3640000  53.2630000  84.1430000
  45.8550000  53.0410000  84.2790000  41.3630000  58.7280000  59.3760000
  40.8890000  58.3760000  58.6230000  40.8650000  58.4240000  60.1360000
  35.8090000  59.2350000  64.1460000  35.2240000  58.5200000  64.3960000
  36.2900000  58.8980000  63.3900000  74.9390000  62.1240000  94.8810000
  74.4580000  62.8210000  94.4350000  75.3550000  62.5580000  95.6260000
  73.7650000  71.8350000  72.9330000  73.2700000  72.0230000  72.1350000
  74.3150000  72.6080000  73.0620000  78.4670000  52.1650000  65.0210000
  78.8970000  52.6080000  65.7530000  77.5970000  51.9420000  65.3530000
  45.0690000  66.9770000  66.3100000  44.7300000  67.8340000  66.5670000
  45.6640000  66.7320000  67.0180000  86.0140000  68.3570000  87.1110000
  85.4470000  68.1270000  86.3750000  85.9440000  67.6130000  87.7100000
  72.2630000  76.6800000  79.4850000  71.5580000  77.3120000  79.6250000
  73.0620000  77.1590000  79.7080000  82.7520000  54.3580000  92.8750000
  83.2930000  54.2100000  93.6500000  82.7570000  55.3090000  92.7560000
  59.1130000  48.6720000  73.0410000  59.6400000  49.3860000  73.3980000
  58.8980000  48.1300000  73.8000000  87.2630000  82.5540000  78.6270000
  86.3650000  82.2230000  78.5990000  87.8080000  81.7680000  78.6660000
  34.9650000  33.9800000  96.4080000  34.1730000  33.4440000  96.4220000
  35.6820000  33.3510000  96.5000000  76.7210000  65.4740000  77.7370000
  76.1940000  64.6770000  77.6890000  77.4570000  65.2410000  78.3040000
  44.0740000  41.5620000  82.4820000  44.5170000  41.0130000  83.1280000
  43.4390000  42.0680000  82.9900000  84.5860000  55.7900000  67.6350000
  85.4170000  55.4850000  67.2710000  84.0370000  55.0060000  67.6680000
  50.3330000  68.4530000  58.0770000  50.3380000  69.3260000  57.6850000
  49.5710000  68.4550000  58.6570000  33.9210000  71.9070000  79.0500000
  33.3260000  71.7140000  79.7740000  34.6680000  72.3420000  79.4620000
  49.9130000  65.0170000  56.0000000  50.7730000  64.6040000  56.0730000
  49.5650000  65.0060000  56.8920000  63.3300000  89.0000000  77.3220000
  64.1190000  88.9940000  76.7800000  63.5030000  88.3530000  78.0060000
  41.8760000  37.8710000  87.5730000  41.7500000  38.6030000  88.1760000
  40.9900000  37.5600000  87.3840000  51.6540000  88.1100000  83.1330000
  51.4420000  88.9930000  82.8320000  50.8260000  87.6320000  83.0750000
  59.5390000  87.2490000  73.1130000  58.7750000  87.8140000  73.2230000
  59.1880000  86.4380000  72.7450000  32.8130000  54.6270000  80.0790000
  32.4240000  53.8050000  80.3780000  32.0810000  55.1150000  79.7010000
  69.6820000  83.4420000  83.8840000  70.5500000  83.7760000  84.1100000
  69.0750000  84.0250000  84.3400000  81.0580000  55.2540000  75.9640000
  81.1170000  56.0100000  75.3800000  81.6720000  55.4490000  76.6720000
  66.5580000  79.0500000  68.7120000  65.7880000  78.6360000  68.3220000
  66.2150000  79.5410000  69.4590000  50.0940000  82.6860000  80.3430000
  50.0280000  83.2280000  79.5560000  49.6300000  83.1840000  81.0170000
  31.9450000  67.7960000  88.0590000  31.1900000  67.6300000  87.4950000
  31.6430000  68.4680000  88.6720000  45.1180000  52.4490000  75.1730000
  45.1170000  52.5510000  74.2220000  45.7460000  51.7440000  75.3380000
  42.6840000  83.7360000  80.1590000  41.8770000  83.6700000  80.6690000
  43.3840000  83.6350000  80.8040000  31.9320000  48.3360000  80.0690000
  32.1980000  47.4170000  80.0490000  31.0000000  48.3120000  80.2870000
  64.1330000  83.5880000  82.3430000  63.3570000  83.9700000  82.7520000
  63.8060000  82.8100000  81.8900000  58.9050000  44.3240000  89.5090000
  58.6650000  45.2500000  89.5290000  59.8630000  44.3250000  89.4990000
  74.0340000  55.9630000  89.6740000  73.3700000  56.0910000  90.3520000
  74.8680000  56.0190000  90.1410000  81.6800000  48.8090000  86.7460000
  81.9430000  49.4310000  87.4250000  82.4890000  48.3550000  86.5100000
  84.9440000  81.1700000  89.8790000  85.8390000  81.4850000  89.7510000
  84.6500000  81.6010000  90.6820000  62.7150000  50.1110000  56.8920000
  63.1380000  49.3280000  57.2430000  63.0550000  50.1880000  56.0000000
  74.7560000  69.7850000  66.0390000  75.2530000  70.0200000  66.8220000
  74.5270000  70.6240000  65.6390000  39.8960000  42.2470000  88.6720000
  39.5340000  42.2290000  89.5570000  40.4900000  41.4960000  88.6400000
  70.0170000  60.1050000  89.8060000  70.8770000  60.3200000  90.1650000
  69.6710000  60.9420000  89.4940000  63.0000000  84.6690000  58.4600000
  62.0950000  84.3570000  58.4650000  62.9250000  85.6240000  58.4580000
  57.8550000  33.3420000  87.3700000  57.1190000  32.8460000  87.0110000
  58.1540000  33.8880000  86.6420000  46.8170000  70.6760000  85.5620000
  47.1180000  71.5190000  85.2230000  47.2260000  70.0270000  84.9900000
  63.8870000  43.9550000  77.9550000  63.3040000  43.1960000  77.9820000
  64.7680000  43.5800000  77.9360000  53.8550000  71.7360000  82.2970000
  53.7660000  71.1580000  83.0550000  53.3150000  71.3280000  81.6200000
  75.2920000  43.9920000  64.8110000  74.9170000  44.8700000  64.7460000
  76.2380000  44.1370000  64.8400000  44.4040000  40.4430000  76.8720000
  44.7230000  41.2250000  76.4220000  44.8160000  40.4790000  77.7360000
  84.5560000  39.9200000  71.2570000  83.8540000  39.9910000  70.6110000
  85.1480000  40.6430000  71.0480000  88.1250000  80.0070000  71.9500000
  87.1980000  79.9480000  72.1800000  88.4770000  80.6750000  72.5390000
  31.0020000  42.7420000  96.4930000  31.0000000  43.2620000  95.6900000
  31.8600000  42.3150000  96.5000000  43.0780000  83.9660000  93.9800000
  42.2770000  84.4860000  93.9100000  43.7500000  84.5960000  94.2400000
  70.1020000  57.2580000  74.5660000  70.2930000  57.8090000  75.3250000
  70.2960000  57.8140000  73.8110000  88.7780000  41.1230000  76.1720000
  88.9990000  40.1920000  76.1500000  89.0000000  41.4010000  77.0610000
  57.4030000  36.2280000  74.5780000  56.5100000  36.3140000  74.9090000
  57.3010000  36.1430000  73.6290000  62.2490000  43.5000000  89.4380000
  62.9970000  44.0920000  89.3580000  62.4310000  42.7980000  88.8120000
  62.7050000  68.8110000  56.0040000  62.7160000  69.7680000  56.0000000
  61.7750000  68.5820000  56.0070000  37.5070000  76.3330000  80.8630000
  38.2840000  75.9550000  81.2740000  37.6190000  76.1570000  79.9290000
  71.8540000  82.6220000  94.3610000  71.0200000  82.1600000  94.2870000
  71.6150000  83.5490000  94.3700000  33.2780000  35.0840000  72.0020000
  32.5230000  34.9610000  72.5770000  33.0990000  35.9050000  71.5430000
  40.8830000  33.0870000  84.9040000  41.3900000  32.3340000  85.2070000
  40.2630000  33.2590000  85.6130000  59.1300000  79.3410000  66.4890000
  59.3230000  80.1790000  66.0690000  59.8710000  78.7800000  66.2580000
  46.6460000  61.6500000  82.2870000  47.3260000  60.9990000  82.1130000
  45.8490000  61.1360000  82.4140000  61.6250000  31.0020000  84.1640000
  62.4990000  31.0180000  84.5540000  61.7840000  31.0000000  83.2200000
  55.5260000  76.7540000  96.4960000  54.9840000  76.6240000  95.7180000
  55.9930000  77.5730000  96.3300000  81.0060000  68.6110000  56.0810000
  80.0530000  68.6120000  56.0000000  81.2370000  69.5330000  56.2010000
  84.2540000  82.3420000  79.9540000  84.2660000  83.2890000  79.8180000
  83.3410000  82.1410000  80.1610000  62.0950000  31.0340000  61.4450000
  62.1610000  31.9550000  61.6960000  62.4580000  31.0000000  60.5590000
  70.9290000  84.5900000  56.2700000  70.0480000  84.3310000  56.0000000
  70.7900000  85.3280000  56.8640000  85.7770000  54.1980000  86.3020000
  86.1470000  54.3730000  87.1670000  86.2320000  53.4110000  86.0010000
  81.9450000  70.7780000  96.4990000  80.9960000  70.6590000  96.5000000
  82.0670000  71.7280000  96.4890000  74.7260000  34.8980000  57.0160000
  75.3030000  34.4000000  57.5950000  73.9650000  34.3310000  56.8900000
  83.9350000  80.2080000  78.6920000  83.8190000  80.7780000  77.9320000
  83.7860000  79.3240000  78.3540000  78.9280000  59.4510000  96.4650000
  79.8630000  59.6530000  96.5000000  78.7570000  59.2660000  95.5410000
  80.9530000  57.7010000  72.5210000  81.7230000  58.2500000  72.3770000
  80.8970000  57.6120000  73.4730000  58.8050000  88.6050000  95.7510000
  58.1750000  88.6640000  96.4680000  58.3550000  89.0000000  95.0030000
  41.7250000  73.5870000  57.9560000  42.6370000  73.6250000  58.2430000
  41.6550000  74.2690000  57.2880000  70.1860000  31.0060000  89.3640000
  69.4230000  31.0060000  88.7860000  70.9370000  31.0000000  88.7700000
  36.0970000  72.6450000  68.6240000  35.5740000  73.4460000  68.6300000
  36.4450000  72.5790000  69.5140000  83.4250000  58.3610000  92.2550000
  84.2270000  58.8710000  92.1390000  83.5340000  57.6070000  91.6760000
  62.6160000  68.1910000  76.7430000  62.8460000  69.0320000  77.1380000
  61.9610000  67.8190000  77.3340000  85.4670000  74.8220000  57.3030000
  85.7790000  74.9750000  58.1940000  85.3430000  73.8730000  57.2520000
  48.0430000  42.3940000  93.4670000  48.3970000  41.8190000  94.1460000
  48.7970000  42.6040000  92.9150000  38.6250000  44.4120000  80.4950000
  38.6290000  43.4990000  80.2080000  38.0510000  44.8570000  79.8710000
  42.9260000  58.1230000  77.7700000  43.4000000  57.2910000  77.7740000
  43.4600000  58.7050000  78.3120000  59.4090000  63.3300000  96.2810000
  58.5810000  63.8030000  96.3600000  60.0760000  64.0160000  96.2540000
  75.7360000  80.3620000  76.7010000  76.2730000  81.0360000  77.1160000
  74.8340000  80.6540000  76.8400000  64.4200000  67.1240000  68.2460000
  63.7140000  67.7700000  68.2140000  63.9720000  66.2780000  68.2260000
  42.8440000  43.1190000  76.8540000  42.3730000  42.7130000  77.5810000
  42.3350000  43.9030000  76.6460000  65.3960000  65.5500000  96.4080000
  66.1190000  66.1690000  96.5000000  65.4880000  65.2030000  95.5200000
  79.3120000  48.5230000  69.3280000  78.5890000  49.1080000  69.1000000
  79.3970000  48.6070000  70.2780000  42.6910000  76.8860000  76.2650000
  42.4400000  76.0260000  76.6000000  42.2280000  76.9630000  75.4300000
  69.1140000  43.8960000  74.3840000  69.7690000  43.3400000  73.9620000
  69.0040000  43.5180000  75.2570000  88.9040000  83.5760000  73.8730000
  88.9860000  83.3790000  72.9400000  89.0000000  84.5270000  73.9270000
  61.0910000  37.5470000  59.5780000  61.4240000  37.1140000  60.3640000
  60.3870000  36.9760000  59.2690000  73.1560000  47.7960000  60.0510000
  72.2740000  47.6490000  60.3920000  73.2030000  48.7420000  59.9050000
  74.3030000  72.1590000  96.3900000  74.0740000  71.2360000  96.5000000
  75.2580000  72.1630000  96.3220000  42.3930000  31.0150000  76.6340000
  43.3100000  31.0000000  76.3620000  42.4270000  31.0000000  77.5910000
  55.1540000  83.6320000  68.5380000  55.9770000  84.1180000  68.5680000
  55.4110000  82.7390000  68.3080000  36.5690000  45.4930000  59.9520000
  36.4790000  44.9660000  59.1590000  37.4350000  45.2680000  60.2940000
  64.2520000  35.0770000  60.7610000  63.4220000  35.5460000  60.8420000
  64.0290000  34.1630000  60.9410000  36.5630000  33.3710000  67.5590000
  37.2700000  33.7980000  68.0430000  36.9500000  33.1560000  66.7100000
  44.2190000  61.2400000  59.7150000  43.5890000  61.3270000  59.0000000
  45.0380000  61.5830000  59.3560000  39.4120000  49.1160000  62.9280000
  40.1270000  49.7440000  63.0310000  39.8480000  48.2660000  62.8600000
  66.6990000  39.1250000  80.0820000  66.5600000  38.5930000  79.2990000
  67.3680000  38.6520000  80.5770000  36.4270000  35.8470000  66.8690000
  37.0630000  36.5480000  67.0100000  36.5160000  35.6260000  65.9410000
  31.0010000  52.4760000  77.6420000  31.6200000  52.7950000  76.9850000
  31.0530000  53.1150000  78.3520000  46.7630000  31.0790000  58.9760000
  47.3920000  31.0130000  58.2570000  47.2930000  30.9810000  59.7670000
  31.5860000  58.6490000  58.9380000  31.0000000  57.8920000  58.9480000
  31.0000000  59.4060000  58.9480000  79.8970000  53.8760000  82.0150000
  78.9910000  53.5950000  82.1450000  80.3700000  53.0720000  81.8000000
  59.0360000  55.0100000  92.5060000  58.4630000  54.8190000  93.2490000
  58.8050000  54.3520000  91.8500000  46.0610000  68.9500000  80.0380000
  45.5680000  69.2850000  80.7870000  46.9660000  69.2140000  80.2090000
  31.3540000  69.4820000  95.5620000  31.0130000  70.2790000  95.1550000
  31.2060000  69.6100000  96.5000000  81.4230000  86.5690000  87.9790000
  82.3360000  86.7720000  88.1830000  80.9190000  87.0300000  88.6500000
  60.5200000  65.1060000  66.3680000  60.8080000  65.4350000  67.2190000
  61.0530000  65.5830000  65.7320000  41.1020000  80.4270000  80.3120000
  41.6200000  81.0880000  80.7700000  41.6340000  80.1880000  79.5530000
  51.2090000  70.2870000  78.0020000  51.2390000  69.4360000  78.4400000
  50.4610000  70.2240000  77.4070000  88.9810000  38.2710000  89.9000000
  88.4110000  38.9890000  90.1760000  88.6920000  37.5220000  90.4220000
  69.8420000  36.1340000  76.4190000  69.9020000  36.1430000  75.4640000
  68.9260000  36.3450000  76.6050000  35.7080000  82.0850000  71.8410000
  34.9500000  82.1750000  72.4180000  35.8780000  81.1430000  71.8130000
  68.8600000  46.5010000  61.6850000  69.4310000  46.9810000  61.0850000
  68.7610000  45.6370000  61.2820000  88.9160000  53.6410000  66.0940000
  88.1390000  54.1600000  66.2990000  89.0000000  53.7000000  65.1420000
  58.2330000  45.8080000  80.6420000  58.0080000  45.1230000  81.2710000
  57.4010000  46.2440000  80.4540000  69.0760000  58.0940000  70.9270000
  69.1230000  57.4260000  71.6100000  69.9830000  58.3720000  70.7990000
  85.5630000  63.4890000  74.0730000  86.3980000  63.8940000  74.3090000
  85.6390000  62.5860000  74.3820000  57.0550000  34.8190000  80.2120000
  56.8460000  35.3310000  79.4300000  56.4630000  35.1570000  80.8850000
  34.3480000  39.6190000  79.7890000  33.9400000  38.9210000  80.3010000
  34.0640000  39.4550000  78.8890000  56.8880000  45.1250000  61.0730000
  56.2400000  45.6890000  60.6520000  56.9020000  45.4140000  61.9860000
  64.5830000  41.5310000  71.2760000  64.1960000  42.0760000  71.9610000
  64.0430000  40.7400000  71.2660000  40.6700000  51.2760000  71.2960000
  40.3040000  50.3910000  71.2980000  41.6180000  51.1440000  71.2880000
  55.6610000  83.3890000  71.1090000  54.9450000  82.7950000  70.8850000
  55.2260000  84.1930000  71.3930000  71.5390000  58.4040000  88.0830000
  72.2380000  57.9760000  87.5890000  71.7490000  59.3370000  88.0370000
  43.7230000  60.4270000  87.2060000  43.5930000  60.8600000  88.0500000
  42.9070000  59.9500000  87.0520000  45.2540000  32.3300000  56.6340000
  45.1030000  31.5500000  57.1670000  44.4880000  32.8820000  56.7940000
  49.0310000  31.0310000  90.7010000  49.1870000  31.1710000  91.6350000
  49.6730000  31.5910000  90.2640000  43.0530000  75.2850000  87.8450000
  43.5720000  74.5430000  88.1550000  43.3030000  76.0100000  88.4180000
  40.7060000  49.9620000  87.9020000  39.8900000  50.4590000  87.8430000
  41.1880000  50.1970000  87.1090000  41.6560000  59.7660000  67.5900000
  41.6140000  58.9340000  68.0620000  40.9490000  59.7110000  66.9460000
  35.9570000  47.7170000  64.8800000  35.4040000  47.5730000  64.1120000
  36.7190000  48.1880000  64.5420000  48.4050000  42.0010000  70.6030000
  48.5650000  42.0310000  71.5460000  49.1180000  41.4650000  70.2550000
  43.4830000  51.9640000  80.5920000  42.5640000  51.6980000  80.6020000
  43.9690000  51.1430000  80.5120000  59.3360000  86.0530000  65.1930000
  58.6330000  86.5460000  64.7710000  59.0130000  85.1520000  65.2230000
  85.0670000  76.3240000  61.2130000  84.1120000  76.3920000  61.2040000
  85.2640000  75.6390000  60.5730000  56.7850000  81.2670000  69.8500000
  57.4590000  80.6340000  70.0980000  55.9980000  80.7380000  69.7150000
  35.6670000  51.7460000  82.7350000  35.1350000  50.9510000  82.7030000
  36.4620000  51.5220000  82.2500000  80.8630000  64.7630000  84.2120000
  81.6040000  65.3000000  84.4910000  80.2820000  65.3730000  83.7580000
  53.3200000  39.0250000  68.1530000  53.2190000  39.5620000  67.3680000
  53.8920000  38.3070000  67.8810000  40.3480000  52.3470000  64.3360000
  41.3000000  52.4380000  64.3350000  40.1490000  51.9050000  65.1620000
  53.1480000  37.4990000  59.3020000  52.6500000  37.6890000  58.5070000
  54.0340000  37.3090000  58.9890000  88.9050000  36.0800000  63.7520000
  89.0000000  35.6700000  62.8920000  88.9450000  37.0200000  63.5750000
  74.6260000  85.0190000  80.9290000  75.0070000  84.1480000  81.0380000
  73.6860000  84.8600000  80.8400000  31.8440000  62.9340000  85.6380000
  31.0310000  63.2740000  86.0110000  32.4150000  62.7940000  86.3940000
  72.7370000  79.1380000  74.8300000  72.3840000  79.2100000  75.7170000
  72.4510000  79.9410000  74.3920000  44.3640000  68.0940000  56.0140000
  43.6080000  67.5080000  56.0000000  45.0220000  67.6250000  56.5280000
  73.2340000  41.4640000  91.3410000  73.9920000  40.9120000  91.5320000
  73.5600000  42.3600000  91.4320000  65.4600000  36.8070000  71.3500000
  65.0750000  37.6830000  71.3260000  66.4040000  36.9620000  71.3930000
  53.6260000  74.5650000  60.6410000  52.8090000  74.6160000  61.1380000
  53.3620000  74.2450000  59.7780000  42.5780000  41.1780000  61.6630000
  41.7850000  40.6630000  61.8070000  42.2690000  42.0830000  61.6060000
  51.9570000  39.5910000  82.9350000  52.5210000  40.3630000  82.9700000
  52.5640000  38.8540000  82.8570000  83.4910000  87.7780000  61.5160000
  83.8140000  88.6780000  61.5460000  84.0540000  87.3000000  62.1270000
  31.3580000  35.5540000  64.7700000  31.3660000  36.2880000  64.1560000
  31.4520000  35.9600000  65.6320000  79.3900000  49.9200000  92.3650000
  78.9080000  49.3720000  91.7460000  80.2930000  49.9040000  92.0460000
  45.6860000  83.6530000  67.5340000  45.3290000  82.9890000  66.9440000
  45.5730000  83.2820000  68.4090000  48.3900000  63.8000000  75.1250000
  48.8600000  63.2400000  75.7420000  48.1550000  63.2170000  74.4020000
  72.8560000  85.8190000  65.6970000  71.9070000  85.8700000  65.8170000
  72.9690000  85.2900000  64.9060000  34.5700000  59.4190000  84.1660000
  34.6010000  60.3020000  84.5350000  35.4290000  59.0460000  84.3640000
  71.6810000  68.8990000  90.1710000  70.8440000  69.3330000  90.3330000
  71.7060000  68.7700000  89.2230000  67.1550000  83.9000000  63.4850000
  67.7950000  84.5980000  63.3510000  67.1490000  83.4170000  62.6580000
  74.9960000  36.2980000  84.1040000  75.0620000  36.7130000  84.9640000
  74.5330000  36.9390000  83.5630000  48.4680000  51.0540000  74.1290000
  49.1090000  50.3870000  73.8860000  47.6400000  50.5780000  74.1960000
  33.6130000  57.1430000  74.3860000  33.1850000  56.2920000  74.4780000
  33.5070000  57.3650000  73.4600000  85.0010000  50.1310000  56.8000000
  84.6130000  50.4850000  56.0000000  84.2580000  50.0020000  57.3900000
  83.7510000  62.3750000  56.0350000  82.8150000  62.3060000  56.2220000
  83.9200000  63.3170000  56.0000000  80.3390000  69.4580000  91.6680000
  80.1950000  70.4030000  91.6250000  79.4620000  69.0860000  91.7670000
  49.7900000  79.5350000  73.7600000  50.6840000  79.8520000  73.8940000
  49.4770000  80.0190000  72.9960000  42.6820000  84.7370000  91.4560000
  43.1790000  85.5530000  91.5190000  42.0810000  84.8780000  90.7240000
  32.2590000  62.5830000  66.2780000  31.6350000  61.8880000  66.4850000
  31.9670000  62.9220000  65.4310000  86.0540000  38.3150000  56.1330000
  86.1010000  37.4370000  56.5120000  86.9680000  38.5680000  56.0000000
  81.1940000  54.0850000  63.8350000  80.8960000  53.3200000  64.3270000
  80.3880000  54.5390000  63.5860000  60.7650000  37.9940000  84.9190000
  59.9010000  37.6760000  85.1820000  60.5870000  38.6120000  84.2090000
  46.7530000  38.7450000  69.8600000  47.1750000  39.6040000  69.8410000
  47.1340000  38.2730000  69.1190000  78.9850000  70.2430000  93.9310000
  79.3530000  71.1240000  93.8660000  79.7200000  69.6960000  94.2080000
  64.6290000  65.9960000  56.0860000  64.3100000  66.8940000  56.0000000
  64.6820000  65.8490000  57.0310000  43.2200000  58.7890000  61.3190000
  42.9470000  57.9640000  61.7210000  43.3960000  59.3700000  62.0590000
  58.3530000  75.9740000  92.7910000  59.2020000  76.2560000  93.1310000
  57.8160000  76.7670000  92.8000000  42.2970000  40.5830000  75.5330000
  41.6120000  40.7640000  76.1760000  41.8860000  39.9880000  74.9060000
  33.5170000  39.4450000  58.0640000  34.4370000  39.1890000  58.1120000
  33.2220000  39.4520000  58.9750000  79.5870000  59.1250000  56.2950000
  79.4640000  58.1790000  56.2150000  78.6990000  59.4790000  56.3380000
  86.3940000  88.9200000  82.5520000  87.2490000  89.0000000  82.9760000
  85.7630000  89.0000000  83.2680000  79.9400000  43.4380000  81.5380000
  80.5380000  42.7190000  81.3340000  80.0030000  43.5400000  82.4890000
  35.7630000  81.0990000  74.5280000  36.3730000  80.3810000  74.3600000
  36.0730000  81.4910000  75.3450000  77.6460000  81.8020000  59.2670000
  77.1060000  82.5780000  59.4140000  77.9080000  81.8620000  58.3480000
  31.0010000  75.7910000  93.7650000  31.0000000  74.8350000  93.8080000
  31.0170000  75.9900000  92.8280000  52.9020000  69.4300000  69.7190000
  53.3370000  69.0580000  68.9520000  52.2260000  70.0030000  69.3580000
  76.0480000  47.0990000  64.7970000  75.3830000  47.6500000  65.2090000
  76.7100000  47.7170000  64.4830000  32.0070000  57.5460000  56.5100000
  31.1840000  57.5590000  56.0220000  32.5970000  58.1020000  56.0000000
  52.1310000  31.0000000  71.2670000  52.6910000  31.0240000  70.4910000
  52.0700000  31.9140000  71.5470000  83.6780000  41.2780000  75.8760000
  83.8290000  40.9140000  76.7490000  83.7580000  40.5270000  75.2870000
  84.5720000  87.3140000  68.3000000  85.4460000  86.9280000  68.3580000
  84.4510000  87.4960000  67.3680000  68.1830000  35.0400000  71.3790000
  67.6390000  34.4230000  71.8670000  68.7010000  34.4910000  70.7900000
  78.6460000  37.4870000  62.5490000  78.4110000  36.6830000  63.0130000
  79.5060000  37.7230000  62.8980000  37.2210000  56.5060000  74.6870000
  36.3590000  56.4250000  75.0960000  37.5960000  57.2990000  75.0720000
  85.9180000  36.1460000  63.1460000  86.0830000  36.8600000  63.7620000
  86.4820000  36.3390000  62.3970000  61.2490000  47.3840000  85.7690000
  60.8520000  48.2540000  85.8130000  60.5110000  46.7920000  85.6210000
  63.9120000  80.8930000  75.0370000  63.2020000  81.3180000  74.5550000
  64.1510000  81.5220000  75.7180000  65.4410000  50.3010000  89.2160000
  64.6080000  50.2010000  89.6760000  65.7580000  49.4050000  89.0970000
  42.6900000  46.8760000  63.7340000  43.1450000  46.0640000  63.9570000
  41.8680000  46.5890000  63.3350000  35.2250000  40.3410000  61.4500000
  34.9410000  39.7330000  60.7680000  34.7010000  41.1290000  61.3020000
  88.0560000  63.7530000  76.1740000  87.8760000  64.6870000  76.2790000
  89.0000000  63.7060000  76.0220000  48.7760000  66.2750000  67.3080000
  48.5080000  67.1930000  67.2760000  47.9540000  65.7870000  67.3640000
  72.3820000  66.2170000  71.2450000  73.1630000  65.7460000  71.5340000
  72.7080000  67.0680000  70.9530000  67.3670000  67.5610000  86.5250000
  66.5900000  68.1050000  86.4000000  67.0980000  66.9000000  87.1640000
  58.2860000  58.9680000  63.3500000  58.9750000  58.3360000  63.5570000
  57.5790000  58.4400000  62.9810000  73.3540000  80.9490000  96.4140000
  72.7250000  81.6650000  96.5000000  72.8250000  80.1540000  96.4930000
  51.6050000  31.7400000  96.5000000  52.1440000  31.0020000  96.2160000
  52.1560000  32.5100000  96.3540000  31.9080000  43.4600000  68.1620000
  31.0590000  43.1930000  67.8100000  32.4930000  42.7310000  67.9570000
  77.2530000  55.8620000  61.1890000  76.7120000  56.3580000  60.5740000
  77.5490000  55.1010000  60.6880000  79.7580000  47.9450000  58.2490000
  79.0400000  47.3230000  58.1350000  79.3290000  48.7990000  58.3040000
  69.0030000  52.2030000  59.0360000  68.5090000  51.3860000  58.9770000
  68.3420000  52.8690000  59.2320000  54.2690000  75.1990000  90.5480000
  53.8440000  74.3890000  90.2670000  53.5500000  75.7550000  90.8490000
  72.1370000  71.2720000  65.2910000  71.7860000  70.7900000  64.5430000
  71.4080000  71.8140000  65.5920000  81.6600000  88.9000000  62.7950000
  81.2340000  89.0000000  63.6460000  80.9460000  88.9660000  62.1600000
  79.7620000  39.9750000  83.1820000  80.0290000  40.8920000  83.1360000
  78.8090000  40.0060000  83.2700000  61.4900000  87.8300000  87.2630000
  61.6000000  88.7590000  87.4660000  62.0630000  87.6790000  86.5110000
  57.2210000  42.1120000  67.1660000  58.1350000  42.1890000  66.8920000
  56.9010000  41.3280000  66.7180000  86.2610000  88.4170000  93.9660000
  86.2120000  89.0010000  93.2090000  86.4070000  89.0010000  94.7100000
  61.7330000  36.7950000  56.0110000  62.6790000  36.9410000  56.0000000
  61.6380000  35.8420000  56.0190000  83.2110000  74.6570000  58.3670000
  83.3960000  75.5150000  58.7480000  83.1990000  74.0590000  59.1150000
  70.1550000  57.8360000  82.3190000  69.3410000  57.8100000  82.8230000
  70.0470000  58.5820000  81.7280000  87.8630000  34.2030000  58.9250000
  88.6990000  33.8420000  58.6300000  87.2020000  33.6530000  58.5040000
  68.0880000  36.1900000  94.4240000  67.8260000  35.3120000  94.1500000
  69.0390000  36.2040000  94.3070000  55.9350000  39.2090000  65.7420000
  55.0240000  38.9140000  65.7370000  56.4470000  38.4030000  65.6740000
  75.0910000  63.2230000  63.3060000  74.1490000  63.1760000  63.4660000
  75.4850000  62.7660000  64.0490000  46.8130000  70.4470000  88.8450000
  46.8150000  69.8640000  88.0860000  46.1100000  70.1120000  89.4030000
  79.0500000  56.6780000  96.4800000  79.0450000  55.7210000  96.5000000
  79.9770000  56.9120000  96.4350000  55.7330000  88.5770000  59.1490000
  54.9000000  89.0000000  58.9400000  55.5770000  87.6460000  58.9880000
  72.8310000  45.9530000  78.0570000  72.9070000  46.6830000  77.4440000
  71.9050000  45.9410000  78.3030000  53.1720000  75.6870000  76.5620000
  52.4570000  76.2010000  76.1890000  53.5570000  76.2580000  77.2280000
  85.3140000  89.0000000  78.3930000  85.9070000  88.7610000  77.6820000
  85.8540000  88.9530000  79.1830000  31.0390000  52.9930000  69.6250000
  31.4460000  52.1670000  69.3660000  31.7220000  53.4540000  70.1120000
  82.0140000  61.8450000  76.8100000  82.9230000  62.1320000  76.8890000
  82.0720000  60.8960000  76.6910000  46.2760000  55.6330000  82.5420000
  46.1910000  54.9380000  81.8900000  47.0850000  55.4260000  83.0100000
  55.8180000  76.0790000  79.7920000  56.7060000  76.2490000  79.4780000
  55.2760000  76.7280000  79.3410000  51.0710000  35.1810000  85.2040000
  50.7540000  35.9950000  84.8150000  50.2840000  34.6480000  85.3200000
  55.8540000  71.5840000  56.0750000  55.6990000  71.3560000  56.9920000
  55.5570000  72.4910000  56.0000000  45.0060000  51.2600000  96.0860000
  45.1400000  50.4070000  96.5000000  44.7650000  51.0530000  95.1830000
  40.0290000  54.2330000  87.4770000  39.8250000  55.1620000  87.5770000
  39.2290000  53.8480000  87.1190000  43.7490000  43.8860000  56.1800000
  44.3070000  44.6630000  56.2170000  42.8620000  44.2310000  56.0760000
  59.0210000  47.7810000  60.7080000  58.8960000  48.6970000  60.9540000
  58.1470000  47.3940000  60.7700000  44.6810000  72.6680000  72.8930000
  44.4840000  73.2750000  72.1800000  44.8850000  71.8410000  72.4550000
  52.7310000  86.5610000  59.5460000  52.8940000  86.8980000  58.6650000
  53.4470000  86.9160000  60.0750000  39.1550000  55.6450000  84.5240000
  38.5550000  55.5860000  85.2670000  38.5870000  55.7890000  83.7670000
  35.1680000  33.5670000  72.6140000  35.7990000  33.7390000  73.3130000
  34.4360000  33.1340000  73.0530000  55.0920000  71.7640000  89.0280000
  54.8130000  71.1540000  89.7100000  54.2830000  72.1910000  88.7440000
  82.8260000  87.0510000  77.2850000  81.8780000  87.0870000  77.1590000
  83.0870000  87.9650000  77.4020000  46.8600000  55.8400000  59.8320000
  46.4250000  55.0640000  60.1860000  47.4870000  55.4950000  59.1970000
  31.4870000  70.9440000  60.2750000  31.8200000  71.2440000  61.1200000
  32.1610000  71.2030000  59.6460000  89.0000000  73.6140000  78.6750000
  88.9660000  73.7700000  77.7310000  88.1170000  73.3190000  78.9010000
  89.0000000  42.5810000  70.6700000  88.5490000  43.3940000  70.8980000
  88.4290000  41.8880000  71.0010000  67.0520000  53.0170000  56.0050000
  67.5790000  52.2180000  56.0190000  67.2730000  53.4650000  56.8220000
  38.6850000  78.2130000  83.9100000  37.8320000  77.9490000  83.5660000
  38.8930000  79.0210000  83.4420000  33.3940000  68.5200000  83.7580000
  34.2640000  68.1450000  83.6190000  33.4670000  68.9930000  84.5880000
  77.9450000  66.2800000  85.0930000  77.1150000  65.8530000  85.3020000
  77.8390000  66.5810000  84.1910000  75.0870000  86.7180000  70.9750000
  74.5030000  85.9670000  70.8750000  75.2490000  86.7740000  71.9170000
  66.0530000  38.1100000  76.2930000  65.8740000  38.8750000  75.7480000
  66.9920000  38.1590000  76.4760000  60.6380000  33.4950000  66.6550000
  59.7730000  33.1440000  66.8630000  60.5260000  34.4450000  66.6830000
  37.8240000  72.6370000  71.7360000  38.3990000  73.3850000  71.8940000
  37.1090000  72.7470000  72.3640000  55.8790000  37.5210000  61.4260000
  55.1350000  36.9450000  61.6020000  55.4830000  38.3500000  61.1560000
  71.4960000  33.1020000  80.3280000  70.8180000  33.5610000  80.8220000
  71.0130000  32.5270000  79.7340000  53.3810000  34.7610000  92.8570000
  52.4930000  34.5210000  93.1190000  53.7520000  35.1890000  93.6300000
  57.6620000  86.9730000  82.2540000  58.6090000  87.0960000  82.3030000
  57.5280000  86.4550000  81.4600000  66.3830000  57.2310000  60.6080000
  65.5960000  56.7240000  60.4110000  67.1050000  56.6820000  60.3030000
  50.5240000  79.2850000  84.5760000  49.7930000  79.8390000  84.3020000
  51.1070000  79.8770000  85.0520000  59.0470000  83.3790000  71.2490000
  58.3090000  83.4420000  70.6420000  59.6340000  84.0880000  70.9860000
  47.2840000  38.3350000  62.9720000  48.1470000  37.9250000  63.0100000
  47.4630000  39.2530000  62.7680000  72.2190000  72.2400000  82.7320000
  71.3200000  72.1510000  83.0490000  72.7620000  71.9740000  83.4750000
  71.9560000  78.7270000  81.6530000  71.0580000  78.4320000  81.8040000
  72.1190000  79.3630000  82.3500000  34.0900000  50.5330000  67.2490000
  33.4040000  51.1790000  67.0880000  34.7970000  51.0300000  67.6610000
  35.6410000  60.3330000  89.9150000  34.9400000  59.8390000  89.4910000
  36.3510000  59.6990000  90.0210000  71.4240000  35.9560000  84.6300000
  72.1470000  36.5230000  84.8980000  71.3840000  35.2810000  85.3080000
  68.1030000  66.4380000  77.8870000  67.4910000  66.7010000  78.5740000
  67.9250000  65.5060000  77.7510000  52.5970000  88.5730000  66.3530000
  53.1630000  87.8010000  66.3270000  52.8120000  89.0000000  67.1830000
  41.1820000  56.5080000  76.3030000  40.7920000  55.6750000  76.0390000
  40.5160000  57.1630000  76.0920000  34.6000000  77.0720000  61.1020000
  33.9610000  76.6070000  60.5630000  34.4300000  76.7670000  61.9930000
  84.8490000  47.1080000  61.1640000  84.4390000  46.2680000  61.3720000
  84.9260000  47.5530000  62.0080000  77.2290000  83.4720000  95.8900000
  77.5580000  83.0870000  95.0790000  77.9810000  83.4610000  96.4840000
  40.8530000  77.5830000  91.1610000  40.5900000  78.5010000  91.0910000
  41.5700000  77.4910000  90.5340000  36.1380000  62.3990000  84.7360000
  36.6580000  61.7810000  84.2220000  36.7230000  63.1440000  84.8780000
  56.2830000  71.3620000  83.5340000  57.0070000  71.6400000  82.9740000
  56.5350000  71.6500000  84.4120000  44.6240000  48.2350000  82.0830000
  45.4920000  48.1820000  82.4810000  44.4400000  49.1730000  82.0300000
  33.5200000  31.5910000  84.8390000  33.4190000  31.0100000  84.0850000
  33.6240000  31.0000000  85.5850000  79.7980000  40.7610000  91.4570000
  80.5530000  41.3040000  91.2310000  79.0470000  41.2320000  91.0950000
  50.1640000  65.7780000  74.1230000  50.0860000  64.9620000  73.6280000
  49.2620000  66.0110000  74.3440000  68.9670000  86.4910000  79.3370000
  68.8990000  86.9020000  78.4750000  68.1540000  86.7290000  79.7820000
  43.5620000  46.1960000  92.8620000  44.4740000  46.0390000  92.6210000
  43.2070000  46.7120000  92.1370000  58.9710000  42.2030000  91.9480000
  58.6480000  43.0520000  91.6460000  58.6910000  41.5850000  91.2720000
  86.1890000  35.8680000  68.9470000  85.9730000  36.2290000  68.0870000
  85.6540000  35.0780000  69.0170000  45.9040000  73.4730000  67.3310000
  46.5930000  73.5800000  67.9870000  45.5730000  72.5860000  67.4720000
  38.4240000  77.7840000  74.8870000  37.6800000  78.2350000  74.4870000
  38.0450000  76.9940000  75.2730000  84.1560000  43.9650000  63.7430000
  84.4260000  44.2730000  62.8780000  84.7460000  44.4110000  64.3520000
  33.8690000  52.8310000  75.2620000  33.8150000  53.2460000  74.4020000
  34.8050000  52.6880000  75.4020000  50.4330000  88.2830000  72.0550000
  50.7310000  89.0000000  72.6140000  51.2280000  87.9710000  71.6200000
  50.4050000  57.1040000  78.3860000  50.2880000  57.7510000  77.6900000
  49.5530000  57.0620000  78.8200000  86.5490000  79.2860000  80.4070000
  86.9600000  79.5560000  81.2280000  86.4290000  80.1010000  79.9190000
  64.0860000  43.1830000  58.8150000  64.5240000  44.0110000  58.6160000
  64.3840000  42.5830000  58.1310000  37.4860000  32.8680000  70.5660000
  37.2820000  32.4870000  71.4200000  38.2400000  33.4350000  70.7300000
  40.2840000  88.7700000  87.8570000  39.4820000  89.0000000  87.3890000
  40.1250000  87.8840000  88.1850000  63.2320000  37.6210000  62.3260000
  63.0810000  38.2150000  63.0610000  64.1800000  37.4860000  62.3180000
  86.4630000  38.7520000  80.9610000  85.7060000  38.6410000  80.3870000
  86.2050000  38.3310000  81.7820000  69.6380000  70.6400000  96.3740000
  70.2630000  69.9220000  96.2760000  68.7930000  70.2080000  96.5000000
  61.8620000  59.2790000  56.0040000  60.9990000  59.6420000  56.2000000
  62.4790000  59.9330000  56.3340000  86.0470000  49.0120000  95.9200000
  86.2020000  48.2670000  96.5000000  86.0530000  49.7740000  96.5000000
  46.0720000  34.5110000  75.1070000  46.7960000  34.8700000  74.5940000
  46.4810000  33.8580000  75.6760000  62.1610000  74.1950000  74.9780000
  61.7450000  73.3510000  75.1530000  61.7970000  74.7840000  75.6400000
  74.2280000  48.8660000  68.2490000  74.2070000  47.9220000  68.0900000
  74.1390000  48.9510000  69.1990000  59.7150000  38.0480000  95.2260000
  59.5920000  38.2020000  96.1630000  58.9310000  38.4170000  94.8180000
  45.1980000  34.0350000  78.0190000  44.6480000  34.3120000  78.7530000
  45.8470000  34.7330000  77.9300000  70.6470000  88.7980000  87.6670000
  70.6110000  87.8420000  87.6510000  71.4210000  89.0000000  88.1940000
  54.9710000  40.5210000  85.4170000  54.7560000  41.2690000  84.8600000
  55.4510000  39.9240000  84.8420000  41.0270000  59.5010000  88.6370000
  40.5280000  58.7420000  88.3350000  41.0430000  59.4130000  89.5910000
  48.4520000  44.6570000  76.2030000  48.8490000  43.9290000  76.6800000
  48.7770000  44.5620000  75.3070000  31.0020000  88.4940000  67.8250000
  31.1710000  87.5940000  67.5470000  31.0000000  89.0000000  67.0120000
  81.1290000  34.8050000  89.7760000  81.4950000  35.4300000  90.4020000
  80.8160000  34.0790000  90.3160000  43.0700000  62.9480000  67.0340000
  43.6520000  63.6450000  67.3360000  42.8100000  63.2170000  66.1530000
  39.7700000  58.5900000  81.3220000  40.5800000  59.0900000  81.2290000
  40.0570000  57.6790000  81.3920000  44.5750000  35.7550000  96.5000000
  44.5390000  36.7110000  96.4880000  43.6580000  35.4800000  96.4690000
  40.8210000  72.6230000  66.6570000  41.0490000  72.2710000  67.5170000
  39.8740000  72.7550000  66.6950000  86.4360000  75.3610000  74.3420000
  86.2750000  76.0160000  75.0210000  86.9600000  74.6880000  74.7780000
  58.1340000  37.4610000  76.6280000  58.9350000  36.9630000  76.4630000
  57.9840000  37.3670000  77.5690000  86.1580000  81.7280000  57.5530000
  86.5340000  82.6080000  57.5750000  86.8890000  81.1490000  57.7670000
  35.6580000  62.3410000  74.7210000  34.9220000  62.1100000  74.1550000
  36.1330000  61.5190000  74.8460000  56.7780000  77.0490000  65.9310000
  55.8960000  76.9440000  66.2860000  56.6460000  77.1580000  64.9890000
  69.7570000  67.4350000  74.1820000  69.4580000  68.3440000  74.1630000
  68.9530000  66.9170000  74.1470000  72.5420000  57.9200000  71.7980000
  72.4640000  58.0750000  70.8570000  72.4150000  58.7820000  72.1940000
  82.6260000  47.2370000  56.0990000  83.3360000  46.5960000  56.1350000
  83.0690000  48.0800000  56.0000000  58.9550000  85.8600000  78.4070000
  58.3110000  85.6360000  77.7360000  59.7420000  85.3750000  78.1560000
  60.9810000  45.3860000  71.5260000  60.2870000  45.9420000  71.1740000
  60.5370000  44.5720000  71.7660000  35.7170000  34.0390000  82.5490000
  34.9880000  33.5090000  82.2260000  35.9140000  34.6390000  81.8300000
  31.2870000  49.1130000  71.8140000  32.2250000  49.2940000  71.7570000
  31.0000000  49.0480000  70.9020000  79.8340000  61.5510000  67.0470000
  80.4910000  60.8600000  67.1240000  79.0550000  61.1900000  67.4720000
  31.9290000  47.4050000  61.0460000  32.0190000  46.5300000  60.6700000
  31.0000000  47.4770000  61.2670000  77.1610000  71.1690000  63.8100000
  78.0470000  70.8070000  63.8170000  76.8090000  70.9600000  64.6760000
  84.5390000  31.0000000  89.5470000  83.9490000  31.4360000  88.9320000
  85.3970000  31.0370000  89.1240000  35.2230000  37.9180000  92.3820000
  34.3520000  37.6480000  92.6730000  35.0790000  38.7530000  91.9360000
  72.4650000  41.3820000  56.2600000  72.6410000  41.8070000  57.0990000
  71.6040000  41.7090000  56.0000000  89.0000000  57.1610000  59.3870000
  88.8200000  56.2210000  59.4170000  88.5510000  57.5160000  60.1540000
  66.1310000  46.6560000  95.8660000  65.5690000  45.9960000  95.4600000
  65.7540000  47.4930000  95.5930000  61.1720000  48.1580000  83.0900000
  61.6770000  48.8720000  82.7030000  61.7920000  47.4300000  83.1500000
  56.0060000  36.2240000  89.0280000  56.0520000  37.1750000  89.1230000
  55.0750000  36.0400000  88.8960000  43.3560000  69.4850000  77.6150000
  44.1550000  69.5120000  77.0880000  43.6230000  69.0670000  78.4340000
  40.7110000  59.3740000  92.2220000  40.7340000  59.9160000  93.0110000
  41.6320000  59.2160000  92.0130000  88.3030000  35.9940000  56.2380000
  88.7460000  36.8110000  56.0090000  89.0000000  35.3370000  56.2430000
  68.9910000  79.5120000  79.5470000  69.7650000  80.0680000  79.6320000
  68.2660000  80.0620000  79.8440000  68.1490000  74.6380000  86.7380000
  68.6420000  75.2720000  86.2170000  68.6220000  73.8130000  86.6230000
  85.7160000  52.6820000  82.7900000  85.4040000  53.5870000  82.7880000
  84.9170000  52.1530000  82.7860000  34.2130000  89.0000000  65.3940000
  35.0580000  88.8330000  65.8110000  33.5830000  88.9910000  66.1150000
  89.0000000  68.6980000  68.4300000  88.3170000  68.7080000  67.7600000
  88.7950000  69.4460000  68.9930000  35.2790000  59.6810000  60.1890000
  34.6390000  60.3490000  59.9450000  35.9890000  60.1700000  60.6050000
  75.1630000  72.0980000  88.9680000  75.5490000  71.2360000  88.8120000
  74.7120000  72.0100000  89.8080000  31.0530000  36.7390000  92.7930000
  31.0000000  36.6680000  91.8400000  31.9840000  36.8770000  92.9720000
  36.0390000  63.1810000  71.4520000  36.6920000  63.6440000  70.9260000
  36.4380000  63.1090000  72.3200000  88.2050000  86.8690000  94.2410000
  87.5080000  86.3630000  94.6560000  89.0010000  86.6090000  94.7060000
  38.3990000  81.5870000  93.2040000  39.2680000  81.2890000  92.9360000
  38.5640000  82.1730000  93.9430000  55.4970000  56.4060000  93.7290000
  55.4810000  57.3590000  93.8170000  56.4270000  56.1780000  93.7560000
  49.2970000  76.9560000  92.6730000  49.6640000  77.7500000  92.2840000
  50.0550000  76.3920000  92.8280000  56.3870000  80.5020000  85.9290000
  57.3270000  80.6200000  86.0630000  56.2960000  79.5880000  85.6580000
  66.7720000  36.1320000  79.6850000  67.4650000  35.7960000  80.2530000
  67.1830000  36.2050000  78.8230000  49.8070000  43.8890000  72.8720000
  48.9310000  44.2700000  72.8230000  49.7130000  43.1450000  73.4680000
  61.9280000  78.0660000  62.0570000  62.8260000  77.7370000  62.0980000
  61.9200000  78.6490000  61.2980000  42.6710000  85.8110000  74.9100000
  42.6930000  84.9020000  75.2070000  43.2090000  86.2840000  75.5460000
  86.3380000  55.2580000  96.5000000  87.2720000  55.0690000  96.4170000
  86.2800000  56.2120000  96.4490000  55.0570000  62.2200000  83.8610000
  54.6450000  62.4670000  83.0340000  54.4560000  61.5820000  84.2470000
  74.4170000  38.9460000  72.0820000  74.1210000  38.0910000  71.7700000
  75.1470000  39.1730000  71.5060000  45.6720000  78.8920000  82.8160000
  44.8060000  79.0040000  83.2080000  46.2150000  78.5510000  83.5270000
  75.5970000  75.0920000  74.0500000  75.9370000  74.6390000  73.2780000
  74.6460000  75.0800000  73.9350000  72.2230000  63.4500000  96.0320000
  73.0260000  63.2210000  96.5000000  72.4010000  64.3130000  95.6580000
  53.3000000  60.9570000  56.7940000  53.7900000  60.4860000  57.4680000
  53.4230000  60.4360000  56.0000000  54.6770000  36.7610000  64.2110000
  53.7630000  36.7670000  64.4960000  54.8930000  35.8330000  64.1190000
  53.5690000  68.1410000  93.2870000  53.1590000  68.0590000  92.4260000
  52.8520000  68.0120000  93.9080000  49.7360000  82.8860000  58.2250000
  49.0510000  83.5530000  58.1930000  49.2610000  82.0550000  58.2360000
  39.6000000  78.4240000  67.1980000  39.2810000  78.0430000  66.3800000
  40.5540000  78.3720000  67.1310000  56.1600000  79.8870000  66.0160000
  56.6140000  80.5540000  65.5020000  56.6690000  79.8180000  66.8240000
  38.2750000  33.9950000  61.5530000  38.0200000  33.5960000  60.7220000
  39.1580000  34.3330000  61.3960000  31.3880000  88.1250000  78.5480000
  31.0000000  89.0000000  78.5590000  31.0100000  87.7050000  77.7760000
  68.5070000  63.5450000  61.8110000  67.7280000  63.6550000  61.2650000
  68.2000000  63.7070000  62.7030000  49.3530000  69.1090000  87.4230000
  49.3640000  68.3030000  87.9370000  48.7070000  68.9460000  86.7350000
  75.5620000  50.9150000  84.5760000  75.9060000  50.0240000  84.5130000
  74.7890000  50.8340000  85.1360000  85.2040000  41.7100000  94.2070000
  86.1500000  41.8490000  94.1990000  85.1010000  40.7580000  94.2140000
  40.2790000  75.8190000  66.9360000  40.1590000  75.6830000  67.8760000
  39.5450000  75.3570000  66.5310000  88.9620000  56.6290000  95.1400000
  89.0000000  57.3010000  94.4590000  88.9610000  57.1200000  95.9620000
  34.8170000  57.1210000  89.7330000  34.7760000  56.1650000  89.7610000
  35.7410000  57.3170000  89.5730000  54.2940000  89.0000000  61.3650000
  53.7550000  88.7940000  62.1290000  55.1940000  88.8670000  61.6630000
  82.8390000  78.9590000  90.5800000  82.9660000  79.7890000  91.0390000
  83.5270000  78.9460000  89.9140000  57.9640000  48.0770000  87.0420000
  58.0910000  48.3220000  86.1260000  57.9970000  48.9070000  87.5190000
  66.9970000  64.5820000  91.4610000  66.3020000  65.0550000  91.9170000
  66.5510000  63.8450000  91.0430000  31.5440000  54.9670000  67.7640000
  31.0000000  55.2290000  68.5070000  31.0040000  55.1520000  66.9950000
  84.1130000  75.7870000  77.1320000  84.1710000  74.8370000  77.2280000
  83.1750000  75.9660000  77.0720000  87.3090000  43.8650000  91.6740000
  87.4460000  44.7810000  91.4360000  86.9540000  43.8990000  92.5630000
  41.7580000  33.3230000  71.3940000  42.0370000  32.9740000  70.5480000
  42.5220000  33.2170000  71.9620000  31.5810000  61.5140000  63.2300000
  31.0000000  62.2750000  63.2190000  31.0000000  60.7710000  63.3970000
  61.6800000  85.7210000  94.8690000  61.4190000  86.6400000  94.8100000
  62.5540000  85.7450000  95.2600000  42.6160000  66.5580000  68.3190000
  42.5810000  65.6140000  68.4720000  43.5150000  66.8040000  68.5410000
  44.2440000  88.9990000  59.6670000  43.3010000  89.0000000  59.5070000
  44.4890000  88.0730000  59.6560000  83.5860000  50.7660000  86.0960000
  84.2450000  51.4400000  86.2630000  82.8280000  51.2480000  85.7640000
  51.1950000  85.2360000  66.6030000  51.1930000  85.3350000  67.5550000
  51.3070000  86.1270000  66.2700000  86.0500000  66.0520000  58.3910000
  85.8530000  65.2080000  58.7950000  85.4820000  66.6740000  58.8460000
  80.6490000  88.6330000  82.5580000  81.0230000  88.6760000  83.4380000
  81.3280000  89.0000000  81.9910000  86.7290000  44.1070000  56.0250000
  87.6510000  43.8540000  56.0000000  86.7410000  45.0640000  56.0010000
  33.8110000  63.9010000  84.1540000  34.5360000  64.3260000  84.6110000
  33.6290000  64.4730000  83.4080000  50.4600000  68.4490000  95.5550000
  50.3490000  67.5460000  95.2570000  50.2730000  68.4170000  96.4930000
  76.0960000  32.8580000  92.5580000  75.4430000  32.2140000  92.2860000
  76.6340000  32.9990000  91.7790000  40.6840000  64.4420000  66.6330000
  39.8800000  64.9610000  66.6380000  40.3840000  63.5330000  66.6660000
  58.7320000  86.3140000  61.7510000  58.4430000  85.5510000  61.2500000
  58.9870000  86.9540000  61.0860000  55.4160000  40.4810000  63.6530000
  55.3830000  39.5810000  63.3320000  56.2460000  40.8250000  63.3210000
  50.7740000  43.1480000  94.5720000  50.8570000  42.2400000  94.2830000
  51.6590000  43.5070000  94.4960000  71.9200000  52.1930000  67.5500000
  71.0840000  51.9100000  67.9210000  71.7050000  52.9800000  67.0500000
  36.8690000  61.5030000  64.2830000  36.6650000  61.3330000  65.2030000
  37.6280000  60.9500000  64.0990000  73.2660000  58.0870000  67.4920000
  73.2440000  57.6570000  68.3470000  73.4650000  59.0030000  67.6890000
  88.1800000  59.9250000  58.8450000  87.5540000  59.9310000  58.1210000
  89.0000000  59.6260000  58.4500000  61.1950000  34.1610000  60.9500000
  61.6690000  33.8730000  60.1700000  60.4200000  33.6000000  60.9800000
  67.7320000  61.9050000  69.7870000  68.1100000  62.2110000  68.9620000
  68.3340000  61.2240000  70.0880000  65.8410000  39.2160000  73.1620000
  66.7130000  38.8390000  73.2740000  65.9920000  40.1600000  73.1150000
  80.7520000  38.6130000  90.0890000  81.3330000  39.2360000  89.6530000
  80.7620000  37.8400000  89.5250000  58.6710000  82.1280000  83.6400000
  58.8030000  81.3510000  84.1820000  57.9370000  82.5860000  84.0510000
  40.1930000  86.6670000  91.4710000  40.3940000  86.9410000  90.5760000
  41.0150000  86.7800000  91.9480000  73.6330000  48.0460000  63.0400000
  74.5710000  48.1710000  62.8990000  73.5490000  47.1240000  63.2870000
  33.6670000  63.9580000  69.6480000  34.6160000  64.0730000  69.6000000
  33.3320000  64.4080000  68.8720000  45.9930000  59.3430000  90.1250000
  45.9610000  60.2970000  90.0660000  45.2160000  59.1070000  90.6330000
  53.4340000  79.9470000  64.8920000  52.5220000  80.1410000  65.1110000
  53.8530000  80.8060000  64.8320000  84.0490000  41.2640000  79.3190000
  84.0260000  40.3290000  79.5200000  83.5240000  41.6700000  80.0090000
  60.2960000  61.5190000  86.2960000  59.8160000  61.1210000  85.5700000
  59.8620000  62.3600000  86.4390000  39.5200000  40.9880000  73.3740000
  39.5460000  40.4030000  74.1310000  40.0490000  40.5440000  72.7100000
  36.0960000  36.7790000  95.3910000  35.4520000  36.3540000  94.8260000
  35.9790000  36.3610000  96.2450000  41.7600000  75.3150000  70.8850000
  41.1790000  74.8120000  71.4560000  41.1980000  75.5990000  70.1630000
  40.6200000  80.6590000  87.3430000  39.9860000  80.0160000  87.0260000
  41.4410000  80.4200000  86.9110000  83.9400000  33.3390000  73.5110000
  84.8910000  33.2640000  73.4320000  83.7240000  34.1530000  73.0560000
  82.9600000  86.2380000  70.3930000  82.4720000  86.1100000  71.2060000
  82.5090000  85.6880000  69.7520000  86.6820000  82.0030000  86.5320000
  86.6270000  81.2020000  87.0520000  87.2190000  81.7630000  85.7760000
  31.5940000  74.6790000  73.0190000  31.0150000  74.3320000  72.3400000
  31.0110000  74.8880000  73.7490000  84.7050000  73.7160000  62.0700000
  85.4280000  73.1170000  62.2570000  84.7610000  74.3810000  62.7570000
  56.6510000  77.9160000  77.4970000  57.2420000  78.2940000  76.8470000
  56.6740000  78.5320000  78.2300000  72.9630000  61.6980000  90.1500000
  73.2250000  61.3850000  91.0150000  72.4590000  62.4940000  90.3250000
  86.1030000  36.2880000  59.8680000  85.6440000  37.1240000  59.7840000
  85.9240000  35.8330000  59.0440000  38.0370000  35.0220000  80.5660000
  38.4330000  34.1640000  80.4130000  38.7820000  35.6160000  80.6640000
  77.0720000  52.8090000  93.8690000  77.7450000  52.9740000  94.5290000
  77.5430000  52.3990000  93.1430000  69.5520000  52.7470000  73.1100000
  68.8930000  52.8530000  72.4230000  70.2340000  52.2080000  72.7070000
  38.2070000  79.0980000  96.4740000  39.1620000  79.0420000  96.4510000
  37.9140000  78.1870000  96.5000000  47.7560000  43.4390000  90.5830000
  47.6940000  44.3400000  90.2670000  48.6310000  43.1520000  90.3180000
  74.6150000  31.5800000  76.6210000  75.1220000  31.0010000  77.1900000
  73.9950000  31.0000000  76.1790000  67.2880000  61.1210000  79.0220000
  68.0000000  60.6890000  78.5510000  67.7110000  61.5260000  79.7800000
  70.3380000  53.2240000  87.7560000  69.7380000  53.0370000  88.4780000
  69.8790000  52.9120000  86.9760000  31.7750000  31.0000000  94.0050000
  32.5610000  31.0690000  93.4640000  31.0500000  31.0170000  93.3800000
  71.9100000  33.7790000  62.1970000  72.2220000  33.0390000  61.6760000
  71.3150000  33.3880000  62.8370000  58.5110000  83.2080000  80.6200000
  58.9260000  82.8550000  79.8330000  58.6180000  84.1570000  80.5410000
  41.6170000  42.7800000  73.6660000  41.1540000  42.5340000  74.4660000
  42.2480000  42.0740000  73.5260000  70.4850000  65.0910000  60.4760000
  71.2170000  65.2280000  59.8750000  70.7370000  64.3250000  60.9910000
  55.1160000  87.9480000  87.0360000  54.8920000  88.8770000  87.0990000
  54.2720000  87.4970000  87.0420000  79.6240000  51.5020000  76.7440000
  79.9310000  52.1510000  76.1110000  79.4350000  50.7250000  76.2190000
  66.1200000  49.9280000  85.6640000  66.8770000  49.4600000  85.3130000
  66.1370000  49.7420000  86.6030000  45.0440000  42.1470000  65.6770000
  45.2580000  42.1130000  66.6100000  45.8780000  42.3380000  65.2470000
  39.8840000  58.5470000  85.8620000  39.8990000  57.5920000  85.9170000
  40.8010000  58.7950000  85.7380000  70.0470000  63.8090000  65.7980000
  70.7980000  63.2170000  65.7780000  69.6610000  63.7370000  64.9240000
  89.0000000  39.9050000  79.3060000  88.9860000  39.2150000  78.6430000
  88.9990000  39.4350000  80.1410000  61.4350000  42.2370000  56.9450000
  61.5430000  42.1330000  56.0000000  62.1680000  41.7530000  57.3260000
  63.3840000  70.3110000  93.7080000  64.3150000  70.0960000  93.6530000
  63.3650000  71.2380000  93.9450000  33.9490000  73.1160000  72.7050000
  34.6900000  72.5720000  72.9720000  33.9140000  73.8130000  73.3610000
  41.3400000  67.5640000  73.5130000  41.1270000  66.6400000  73.3880000
  42.2500000  67.6420000  73.2270000  75.4440000  64.9050000  82.9130000
  74.5490000  64.5730000  82.9740000  75.9170000  64.4490000  83.6100000
  73.5230000  43.8970000  62.1790000  74.3940000  43.6680000  62.5010000
  73.3000000  44.7050000  62.6420000  64.0070000  88.8870000  88.1410000
  64.9120000  88.7780000  88.4340000  64.0740000  89.0000000  87.1920000
  61.8790000  63.1850000  67.4200000  61.0220000  62.7920000  67.2530000
  62.4710000  62.4390000  67.5120000  33.9300000  61.9960000  77.9190000
  33.9670000  61.5220000  78.7500000  34.7690000  61.8060000  77.4970000
  85.3440000  69.0250000  75.8880000  85.7930000  68.1850000  75.7860000
  86.0480000  69.6740000  75.8900000  69.0180000  76.6630000  90.8420000
  68.4130000  75.9980000  91.1710000  68.5190000  77.1320000  90.1730000
  66.3650000  54.3030000  63.5330000  65.8830000  55.1290000  63.5230000
  66.7420000  54.2350000  62.6550000  57.2680000  42.6600000  73.7130000
  56.5600000  42.9490000  73.1370000  57.0550000  41.7490000  73.9160000
  77.1840000  53.9020000  67.6270000  77.8350000  53.9990000  68.3220000
  76.3410000  53.9530000  68.0780000  31.5790000  78.8470000  81.3010000
  31.0000000  78.8840000  82.0620000  31.0000000  78.9860000  80.5520000
  40.6140000  69.0610000  77.1720000  40.3640000  68.2150000  77.5440000
  40.5490000  68.9360000  76.2250000  83.7200000  48.7320000  89.0400000
  83.4820000  47.8200000  88.8760000  84.6050000  48.8170000  88.6870000
  77.2410000  37.6680000  93.4250000  77.8280000  38.4120000  93.5550000
  77.1140000  37.3070000  94.3030000  33.3270000  76.1070000  76.1530000
  32.6350000  76.6060000  75.7200000  33.6210000  75.4810000  75.4910000
  36.4300000  36.7870000  89.5990000  36.8490000  35.9310000  89.6880000
  36.7590000  37.2930000  90.3420000  42.2320000  54.8430000  85.8280000
  42.7920000  54.9950000  85.0670000  41.5080000  55.4610000  85.7210000
  88.6720000  32.6520000  87.8740000  89.0000000  33.4760000  87.5160000
  89.0000000  31.9820000  87.2730000  49.3760000  75.5750000  66.1730000
  48.8850000  75.3640000  66.9680000  49.0800000  76.4550000  65.9350000
  83.9680000  34.2180000  96.4070000  83.6120000  35.1040000  96.4640000
  83.6800000  33.8980000  95.5520000  88.4150000  77.7710000  96.5000000
  89.0000000  78.5260000  96.4510000  88.9900000  77.0140000  96.3870000
  56.1200000  58.8060000  74.6940000  56.7080000  58.8170000  75.4490000
  56.1740000  57.9090000  74.3620000  77.3760000  42.5970000  84.2310000
  77.9170000  41.9350000  84.6600000  77.7500000  42.6820000  83.3540000
  57.0930000  58.2060000  84.4790000  56.7100000  59.0010000  84.8500000
  58.0360000  58.3760000  84.4700000  63.2980000  71.4010000  60.7160000
  63.8060000  70.5930000  60.6340000  63.9510000  72.0770000  60.8990000
  60.4340000  56.9820000  85.1890000  60.5220000  56.4370000  84.4070000
  60.9040000  56.5010000  85.8710000  61.6300000  73.8840000  64.4140000
  62.0610000  74.7380000  64.4000000  60.6960000  74.0860000  64.3440000
  48.0490000  34.0070000  90.4010000  47.2360000  33.5860000  90.1230000
  48.2990000  33.5440000  91.2010000  86.6640000  57.4170000  75.9210000
  86.7880000  56.4750000  75.8090000  87.2860000  57.8150000  75.3110000
  33.5350000  66.2070000  81.4110000  33.0810000  67.0460000  81.4830000
  34.3500000  66.3320000  81.9000000  79.0780000  77.1490000  60.4450000
  78.1560000  76.9510000  60.6050000  79.3140000  76.6020000  59.6950000
  68.6420000  64.2120000  96.4970000  69.3580000  63.5770000  96.5000000
  67.8480000  63.6770000  96.4980000  55.7260000  86.0240000  65.1350000
  56.4520000  85.7430000  65.6920000  55.8220000  86.9750000  65.0770000
  83.9330000  44.2640000  67.5300000  83.1780000  44.8450000  67.4290000
  83.5930000  43.3920000  67.3300000  54.8150000  46.6570000  73.3140000
  55.7550000  46.4780000  73.3180000  54.4060000  45.7930000  73.3590000
  84.7800000  46.1430000  94.1630000  85.5310000  45.5540000  94.2320000
  85.0930000  46.9740000  94.5220000  45.1160000  51.9320000  89.5390000
  45.3660000  51.3280000  90.2370000  44.2350000  51.6570000  89.2860000
  82.2270000  46.4520000  75.6050000  81.8390000  47.3200000  75.7130000
  81.5830000  45.8520000  75.9830000  78.7850000  73.4030000  73.5290000
  78.3330000  74.0090000  72.9420000  79.6940000  73.7030000  73.5290000
  33.3830000  82.9690000  68.5400000  32.8560000  83.7400000  68.7520000
  33.9580000  82.8560000  69.2970000  46.7830000  82.4040000  64.5760000
  47.6860000  82.2460000  64.3010000  46.4280000  81.5300000  64.7450000
  57.7920000  59.5390000  87.0400000  58.6490000  59.2420000  86.7350000
  57.8460000  60.4950000  87.0140000  33.6860000  86.5760000  65.0860000
  34.1100000  85.8160000  64.6870000  33.9050000  86.5120000  66.0160000
  66.6980000  88.9990000  78.0660000  66.5320000  88.2500000  78.6380000
  67.6480000  89.0000000  77.9420000  46.9720000  59.4830000  87.3410000
  46.0190000  59.3950000  87.3100000  47.2930000  58.5850000  87.4280000
  43.7340000  72.6450000  56.0350000  43.7870000  73.6010000  56.0230000
  42.7960000  72.4560000  56.0000000  49.0720000  85.1330000  60.6160000
  48.1890000  84.8410000  60.8380000  49.0610000  86.0770000  60.7800000
  67.6070000  49.9380000  57.0820000  68.1740000  49.2840000  57.4900000
  67.6250000  49.7220000  56.1490000  64.5250000  56.4290000  88.0040000
  65.3900000  56.2150000  88.3530000  63.9130000  56.1090000  88.6680000
  32.0180000  82.4820000  62.4770000  32.6650000  82.4720000  61.7720000
  32.5260000  82.6710000  63.2670000  78.8970000  31.0960000  64.4500000
  79.6600000  31.0000000  65.0190000  78.8830000  32.0260000  64.2220000
  46.1750000  31.5370000  74.7990000  46.3570000  31.0000000  74.0270000
  45.5880000  31.0000000  75.3310000  51.1300000  31.0760000  81.2910000
  50.7400000  31.3370000  82.1250000  50.3870000  31.0000000  80.6920000
  65.4270000  76.4320000  80.0570000  65.4110000  76.4710000  81.0130000
  66.1580000  75.8480000  79.8530000  73.0430000  72.5140000  75.2930000
  73.8390000  73.0110000  75.4830000  72.3750000  73.1810000  75.1360000
  50.1070000  46.2840000  94.2890000  49.9870000  45.6170000  93.6140000
  50.0480000  47.1160000  93.8180000  80.5840000  65.3500000  73.5040000
  80.5340000  65.8660000  74.3080000  79.7000000  65.3920000  73.1360000
  68.3060000  78.5440000  56.0230000  69.2230000  78.2690000  56.0000000
  67.8110000  77.7250000  56.0400000  32.9590000  43.6190000  61.2100000
  33.2240000  43.6590000  62.1290000  33.3330000  44.4080000  60.8180000
  59.0800000  74.8980000  70.3060000  59.6130000  75.5400000  69.8370000
  59.6120000  74.6510000  71.0620000  77.4930000  83.3570000  84.6870000
  77.1640000  84.0830000  85.2170000  78.0170000  83.7750000  84.0040000
  67.0200000  31.0570000  88.0990000  67.1520000  31.9650000  88.3690000
  66.0860000  31.0000000  87.8950000  85.1250000  65.6000000  81.2520000
  84.7940000  65.1950000  80.4500000  86.0580000  65.7370000  81.0850000
  85.0110000  38.9070000  62.7600000  85.6830000  38.6950000  62.1120000
  85.4820000  39.3760000  63.4500000  36.8150000  71.1410000  91.5750000
  36.2630000  70.4040000  91.8340000  36.3510000  71.9140000  91.8980000
  31.0130000  84.6800000  76.0060000  31.1770000  84.1770000  75.2090000
  31.0000000  85.5920000  75.7160000  55.3870000  72.3430000  73.1960000
  54.5620000  72.4900000  72.7350000  55.4620000  73.0850000  73.7970000
  54.0320000  57.8500000  63.2490000  54.9820000  57.8320000  63.1370000
  53.7770000  56.9280000  63.2820000  74.1540000  66.0490000  90.9550000
  74.5290000  65.7150000  90.1390000  73.9990000  66.9780000  90.7840000
  62.0720000  86.1260000  82.8430000  62.6110000  86.9170000  82.8250000
  61.1720000  86.4500000  82.8790000  47.9240000  88.9990000  91.1140000
  48.0650000  88.1290000  91.4860000  47.0040000  88.9990000  90.8470000
  72.0880000  56.4170000  62.6330000  71.2990000  56.7150000  63.0860000
  72.1250000  55.4770000  62.8090000  44.2780000  80.1710000  58.3780000
  43.6220000  79.4750000  58.3680000  45.1170000  79.7100000  58.3640000
  38.3930000  57.8410000  56.0180000  37.5340000  58.0710000  56.3720000
  39.0050000  58.4110000  56.4850000  40.2440000  61.4610000  69.1750000
  40.3010000  60.5740000  69.5300000  41.1540000  61.7300000  69.0520000
  72.9750000  39.1080000  89.3410000  73.0100000  40.0380000  89.1180000
  72.7950000  39.0930000  90.2810000  68.6210000  70.1010000  87.3420000
  68.9610000  70.9820000  87.4940000  68.9850000  69.8460000  86.4930000
  57.1190000  38.0490000  96.5000000  57.1700000  37.0940000  96.4650000
  56.1810000  38.2410000  96.4710000  88.9260000  54.6210000  74.2660000
  89.0000000  55.4410000  74.7540000  88.0010000  54.5680000  74.0240000
  80.9250000  76.3230000  57.8040000  81.5590000  76.0720000  57.1320000
  81.3920000  76.9560000  58.3490000  81.6510000  49.9220000  56.9180000
  80.9870000  49.3640000  56.5140000  81.6480000  49.6690000  57.8410000
  83.6180000  56.8280000  96.1940000  82.7110000  56.8470000  96.5000000
  83.5750000  56.3860000  95.3460000  48.1310000  83.4480000  94.0450000
  47.7970000  82.6090000  93.7270000  47.3490000  83.9880000  94.1630000
  49.9510000  74.0870000  91.3600000  50.4300000  73.3080000  91.6420000
  50.5420000  74.5230000  90.7450000  86.0830000  73.1100000  83.7440000
  86.2280000  74.0550000  83.7000000  85.1370000  73.0170000  83.8560000
  31.7570000  31.5860000  56.0020000  32.5140000  31.0000000  56.0000000
  31.0000000  31.0000000  56.0100000  79.6370000  87.8320000  79.8530000
  79.3770000  87.0470000  79.3700000  80.5840000  87.7440000  79.9610000
  86.0710000  75.8420000  95.9240000  86.5440000  76.2730000  95.2130000
  86.7570000  75.5050000  96.5000000  73.9000000  57.9610000  84.4580000
  73.3710000  57.5860000  85.1620000  74.7780000  57.6080000  84.6030000
  72.2890000  68.6460000  68.6580000  72.2510000  67.6930000  68.5730000
  71.4570000  68.9530000  68.2970000  80.6700000  45.0390000  73.7970000
  79.9590000  44.4020000  73.8630000  81.2870000  44.6470000  73.1780000
  87.3220000  57.7730000  63.3080000  86.8750000  58.2860000  63.9810000
  86.8850000  58.0170000  62.4910000  87.8680000  76.2190000  59.9930000
  88.7610000  76.5630000  60.0160000  87.3100000  76.9960000  60.0370000
  46.8270000  54.3830000  74.2530000  46.5540000  54.4640000  73.3390000
  46.1140000  54.7810000  74.7520000  31.1870000  50.5020000  76.0880000
  31.0000000  49.8160000  75.4480000  32.0910000  50.3390000  76.3580000
  44.7890000  69.6740000  83.9950000  45.4090000  69.5860000  83.2710000
  43.9770000  69.2880000  83.6640000  82.1050000  55.9930000  84.6590000
  81.8470000  55.7110000  83.7810000  83.0530000  55.8630000  84.6840000
  85.9400000  71.5190000  85.7690000  86.7180000  71.4420000  86.3200000
  85.5810000  70.6320000  85.7350000  43.2910000  85.2530000  72.1340000
  43.9990000  85.0540000  71.5220000  42.7600000  84.4560000  72.1550000
  46.9610000  39.9870000  81.3300000  46.1460000  40.4310000  81.0970000
  46.9240000  39.9010000  82.2820000  62.4080000  86.3860000  76.7760000
  62.8430000  86.8460000  76.0580000  63.1080000  85.8890000  77.2000000
  88.1770000  60.7850000  76.5720000  89.0000000  61.2710000  76.6250000
  87.5100000  61.4100000  76.8570000  34.8820000  54.0290000  85.2840000
  35.7110000  54.4990000  85.1900000  35.1360000  53.1470000  85.5580000
  32.9940000  45.6960000  76.2530000  33.2940000  44.8510000  76.5860000
  32.3940000  45.4740000  75.5400000  71.2430000  86.5190000  82.0920000
  70.5620000  86.5210000  82.7650000  71.0740000  85.7270000  81.5820000
  46.1510000  88.7940000  74.2520000  46.6270000  89.0000000  73.4480000
  46.3070000  87.8590000  74.3900000  44.3190000  75.8300000  61.3030000
  44.1560000  76.7040000  60.9480000  43.4650000  75.5370000  61.6220000
  61.4720000  89.0000000  64.4770000  60.7580000  88.3670000  64.5420000
  62.2640000  88.4630000  64.4230000  59.0840000  89.0000000  66.4420000
  59.2270000  88.0780000  66.6550000  58.3540000  88.9920000  65.8220000
  67.9030000  57.3300000  56.3300000  67.4200000  56.5730000  56.0000000
  67.4030000  58.0860000  56.0220000  45.2960000  81.6730000  56.2870000
  45.4370000  82.2530000  57.0350000  44.4030000  81.8640000  56.0000000
  61.6470000  76.0340000  82.1110000  61.4790000  75.1370000  81.8220000
  62.5990000  76.0860000  82.1940000  55.8640000  62.6020000  86.4670000
  56.6240000  62.3860000  85.9270000  55.6350000  63.4960000  86.2110000
  66.0570000  84.2730000  96.4750000  66.7440000  83.6060000  96.4850000
  66.5300000  85.1050000  96.4750000  49.9210000  73.5860000  78.2580000
  49.4180000  72.7800000  78.1410000  50.1780000  73.5760000  79.1810000
  72.6380000  65.6910000  56.1550000  72.6230000  66.6350000  56.0000000
  71.8690000  65.5250000  56.7010000  69.3370000  45.8450000  85.3820000
  69.7240000  46.5810000  84.9090000  68.6120000  46.2290000  85.8740000
  86.7420000  43.4820000  84.8590000  86.0930000  42.7810000  84.8010000
  86.2230000  44.2820000  84.9420000  35.2810000  40.8030000  95.9160000
  36.0370000  40.8440000  96.5000000  34.5330000  40.6720000  96.5000000
  74.9780000  43.7460000  84.5080000  75.2160000  44.1580000  85.3390000
  75.4160000  44.2770000  83.8430000  44.0040000  33.3590000  75.9100000
  43.1200000  33.6530000  76.1300000  43.9280000  33.0190000  75.0180000
  88.3870000  38.6680000  68.6150000  88.9340000  39.3950000  68.3200000
  88.9910000  38.0830000  69.0730000  65.7280000  72.7810000  68.4530000
  65.2750000  72.0710000  67.9980000  65.3820000  72.7530000  69.3460000
  32.9270000  53.3140000  65.3330000  33.3960000  54.1470000  65.3810000
  32.4210000  53.2760000  66.1450000  62.5220000  38.7040000  95.7930000
  63.4610000  38.8060000  95.6390000  62.1610000  38.4760000  94.9360000
  44.8240000  83.7330000  62.2800000  45.0920000  84.2150000  63.0620000
  45.5000000  83.9320000  61.6310000  52.2980000  63.5830000  78.8940000
  51.4130000  63.3150000  79.1420000  52.8120000  62.7760000  78.9300000
  39.5860000  61.3530000  58.8640000  40.3730000  61.6300000  58.3960000
  39.4700000  60.4350000  58.6170000  36.9640000  33.1720000  89.7800000
  36.8630000  33.2380000  88.8310000  37.8610000  33.4620000  89.9470000
  78.0170000  35.2400000  89.7440000  78.8160000  35.7480000  89.8800000
  77.8330000  34.8480000  90.5990000  80.6270000  42.0020000  95.9150000
  80.8990000  41.2950000  96.5000000  80.4660000  42.7460000  96.4960000
  76.3150000  54.9820000  74.4890000  76.6500000  55.6980000  73.9510000
  76.8190000  55.0360000  75.3020000  50.7370000  64.4220000  88.1990000
  50.1840000  64.8300000  87.5320000  51.4690000  64.0490000  87.7070000
  58.9290000  31.0000000  61.8100000  59.5630000  31.0000000  61.0930000
  58.7640000  31.9270000  61.9850000  56.3450000  72.1640000  62.1680000
  57.2600000  72.3390000  62.3870000  56.1760000  72.7030000  61.3940000
  48.5520000  85.0620000  92.1540000  49.1290000  85.2130000  91.4060000
  47.7780000  84.6410000  91.7790000  52.6510000  72.9730000  75.4150000
  52.4360000  72.0740000  75.1650000  51.8020000  73.4040000  75.5150000
  86.3540000  77.4910000  56.6670000  86.2130000  76.8200000  55.9990000
  85.6810000  77.3180000  57.3270000  40.7400000  70.9590000  96.2640000
  40.9790000  71.2850000  95.3960000  39.9570000  71.4570000  96.5000000
  44.8780000  33.9230000  72.5330000  45.4280000  34.7020000  72.4560000
  45.4860000  33.2250000  72.7800000  78.1100000  65.3250000  75.1010000
  78.4450000  65.6690000  75.9290000  77.1580000  65.3430000  75.2020000
  46.4310000  80.6180000  85.3070000  47.2490000  81.0860000  85.1370000
  45.8610000  80.8570000  84.5760000  56.3980000  76.5360000  88.1490000
  55.6130000  76.1320000  88.5160000  56.1890000  77.4690000  88.1010000
  88.9630000  76.1810000  87.3740000  88.9790000  76.8350000  88.0720000
  89.0000000  76.6920000  86.5650000  49.1530000  88.4500000  57.2440000
  49.0180000  88.2320000  56.3220000  50.0270000  88.8390000  57.2730000
  66.2880000  43.1140000  62.1980000  66.4860000  42.2130000  61.9460000
  66.2810000  43.5980000  61.3720000  82.0130000  43.9260000  65.3320000
  81.0620000  43.8930000  65.2290000  82.2470000  44.8280000  65.1090000
  86.0310000  67.5300000  78.4730000  85.9070000  66.5980000  78.6530000
  86.9390000  67.5980000  78.1760000  75.1710000  56.9460000  75.5340000
  75.3880000  57.7990000  75.9090000  74.2240000  56.9770000  75.3970000
  56.8170000  33.1150000  89.8780000  57.6340000  33.5620000  90.0970000
  56.3050000  33.7700000  89.4020000  47.3940000  42.4660000  81.9390000
  46.5920000  42.5890000  82.4470000  47.6160000  43.3420000  81.6240000
  55.8510000  75.2270000  56.0310000  55.3860000  76.0630000  56.0000000
  56.7770000  75.4690000  56.0590000  71.2280000  86.0020000  78.3550000
  71.7080000  86.0440000  79.1820000  71.5240000  86.7710000  77.8660000
  71.5080000  73.1980000  70.5060000  70.7980000  73.5230000  69.9530000
  72.2930000  73.6300000  70.1680000  86.0540000  79.9430000  94.2790000
  85.1380000  80.2040000  94.3630000  86.5190000  80.7580000  94.0880000
  76.9170000  34.8460000  93.8340000  77.7070000  34.3560000  94.0600000
  77.0930000  35.1970000  92.9610000  81.6170000  36.7570000  78.0440000
  81.5880000  36.1230000  78.7610000  80.7040000  36.8500000  77.7700000
  31.0260000  54.3900000  82.5760000  31.0000000  55.1210000  81.9590000
  31.0000000  54.8040000  83.4390000  51.4290000  53.0180000  67.2650000
  50.5190000  53.2220000  67.4780000  51.5730000  52.1460000  67.6320000
  89.0000000  35.9110000  88.2840000  88.1320000  36.2410000  88.0530000
  88.8610000  35.4130000  89.0900000  69.9830000  39.5340000  88.9140000
  70.6960000  39.2770000  88.3290000  70.3700000  39.5070000  89.7890000
  53.4880000  69.2550000  96.1190000  53.6680000  70.1450000  95.8160000
  52.6110000  69.3040000  96.5000000  35.1560000  33.9410000  60.7550000
  34.2720000  34.2700000  60.9170000  35.7120000  34.7190000  60.7920000
  74.3090000  42.8660000  88.1130000  73.7830000  42.1640000  87.7310000
  73.6910000  43.5870000  88.2390000  81.0370000  88.9170000  68.2590000
  80.8040000  88.9490000  69.1870000  81.9910000  89.0000000  68.2480000
  64.7190000  85.9920000  63.0150000  63.9980000  86.5970000  63.1880000
  65.4500000  86.3380000  63.5280000  59.9000000  51.8160000  91.1970000
  59.9700000  50.8710000  91.0630000  60.8040000  52.1290000  91.1720000
  54.7120000  59.9520000  86.2170000  53.9890000  60.2720000  86.7570000
  54.7220000  59.0060000  86.3650000  83.2380000  67.4090000  59.6670000
  82.8940000  68.2760000  59.8830000  82.4940000  66.9460000  59.2820000
  37.3950000  65.3320000  83.8070000  37.9850000  66.0170000  84.1210000
  36.8510000  65.7660000  83.1490000  80.1840000  69.7420000  66.6670000
  79.3450000  70.1110000  66.3930000  79.9700000  68.8620000  66.9770000
  32.9800000  66.7530000  93.9460000  32.7920000  67.5620000  94.4220000
  33.9290000  66.6500000  94.0150000  65.0320000  76.1250000  70.4850000
  65.6350000  76.8630000  70.3980000  64.1650000  76.5280000  70.5330000
  65.4320000  85.7700000  82.3970000  66.2200000  85.8520000  81.8600000
  65.0630000  86.6530000  82.4180000  36.7150000  88.8420000  86.9050000
  37.2760000  88.1330000  86.5920000  36.1040000  89.0000000  86.1850000
  77.7390000  63.4220000  90.2250000  78.1870000  63.2770000  91.0580000
  78.4010000  63.8280000  89.6640000  46.2410000  71.8250000  69.7580000
  46.6100000  72.2300000  70.5430000  45.4690000  71.3530000  70.0730000
  42.8020000  45.8020000  59.3070000  42.8920000  46.6390000  59.7620000
  42.1460000  45.9660000  58.6290000  33.2310000  45.2370000  90.3160000
  33.8890000  44.8730000  90.9090000  32.5400000  44.5750000  90.2890000
  77.5880000  71.4320000  68.4340000  77.4260000  70.6540000  67.9000000
  78.1670000  71.1270000  69.1320000  75.3150000  53.9950000  91.9190000
  74.4990000  54.4720000  92.0710000  75.9990000  54.6620000  91.9830000
  88.9980000  84.4680000  70.5090000  88.7800000  85.2510000  71.0140000
  88.2370000  83.8960000  70.6110000  84.4280000  70.0580000  64.5410000
  83.5680000  69.8180000  64.1970000  84.2920000  70.1500000  65.4850000
  37.6960000  58.7550000  87.1050000  37.5400000  57.8110000  87.0880000
  36.9110000  59.1350000  86.7090000  60.8940000  69.3490000  61.6340000
  61.8450000  69.4450000  61.6760000  60.5550000  70.1930000  61.9330000
  67.5660000  58.6750000  81.2200000  66.8230000  58.1380000  80.9450000
  67.9550000  58.9830000  80.4010000  53.5010000  35.6500000  84.2660000
  54.0730000  34.9640000  83.9200000  52.9030000  35.8490000  83.5450000
  39.5060000  67.2140000  68.8740000  40.0720000  66.9440000  68.1520000
  40.0620000  67.1520000  69.6510000  82.8970000  38.5860000  91.7840000
  82.8330000  37.6600000  91.5500000  83.6380000  38.9130000  91.2730000
  89.0000000  39.8690000  96.4430000  88.9640000  39.6790000  95.5060000
  88.8760000  40.8170000  96.5000000  78.0590000  70.4870000  77.7330000
  78.2180000  69.5770000  77.9830000  77.2420000  70.4600000  77.2330000
  43.4550000  64.0410000  72.9560000  42.7710000  64.7050000  73.0350000
  44.0230000  64.3630000  72.2560000  82.5450000  36.2000000  94.0540000
  82.2100000  36.4700000  94.9090000  82.0980000  35.3740000  93.8700000
  77.0520000  46.6110000  94.6510000  77.1450000  45.8080000  94.1390000
  76.1190000  46.6560000  94.8590000  74.1450000  34.8340000  71.0270000
  73.8080000  35.7260000  70.9480000  73.5930000  34.3160000  70.4410000
  54.4970000  58.7280000  70.3700000  54.7550000  59.4760000  69.8300000
  55.3230000  58.2990000  70.5950000  76.8300000  58.5340000  62.8570000
  76.9790000  58.6730000  61.9220000  76.2040000  57.8100000  62.8950000
  88.6530000  74.5790000  72.4720000  89.0000000  74.9060000  73.3020000
  88.3850000  75.3660000  71.9970000  71.9660000  74.9190000  90.9050000
  71.3850000  75.6060000  90.5790000  72.7440000  74.9800000  90.3490000
  33.2380000  79.9370000  61.9870000  33.1240000  80.2760000  62.8750000
  32.9920000  79.0140000  62.0490000  78.4870000  77.3490000  88.0930000
  79.1850000  77.6780000  88.6590000  78.8510000  76.5540000  87.7010000
  53.2310000  36.8250000  70.5410000  54.0770000  36.4880000  70.2480000
  53.2470000  37.7530000  70.3040000  72.6340000  69.0610000  56.6730000
  72.2590000  69.2010000  57.5420000  71.9940000  69.4410000  56.0710000
  52.1340000  57.5290000  93.8970000  52.9930000  57.1110000  93.8540000
  52.3230000  58.4680000  93.8990000  34.8770000  72.6140000  58.4610000
  35.3330000  73.4150000  58.2050000  35.5090000  71.9140000  58.2930000
  54.7690000  56.0410000  68.3620000  55.3270000  56.7990000  68.5340000
  54.5750000  55.6840000  69.2300000  42.9480000  59.6180000  94.1320000
  43.4430000  60.3220000  93.7120000  43.4180000  58.8190000  93.8930000
  45.9690000  79.8730000  92.0120000  46.0180000  78.9350000  91.8300000
  46.8680000  80.1250000  92.2230000  31.0000000  33.4610000  75.1480000
  31.8380000  33.7810000  74.8140000  31.0790000  33.5310000  76.1000000
  56.9840000  41.3810000  60.3800000  57.5060000  40.8020000  59.8250000
  56.3640000  40.7970000  60.8190000  41.4520000  42.2840000  80.3200000
  40.9340000  42.7780000  80.9540000  40.8240000  42.0280000  79.6440000
  84.0360000  47.1100000  58.8000000  83.2510000  47.6580000  58.7690000
  83.7020000  46.2130000  58.8320000  70.5550000  41.1200000  58.2930000
  70.2680000  41.9510000  58.6720000  69.7430000  40.6350000  58.1380000
  64.6880000  81.7300000  59.4050000  64.2070000  82.5350000  59.6000000
  65.2490000  81.5950000  60.1690000  54.4730000  51.4870000  73.0500000
  54.0480000  51.7990000  72.2510000  53.8370000  50.8890000  73.4430000
  44.7340000  57.8950000  82.7380000  45.3900000  58.5920000  82.7130000
  43.9170000  58.3410000  82.9600000  55.5150000  61.8320000  67.7560000
  54.7700000  62.4320000  67.7390000  55.1320000  60.9680000  67.6040000
  39.4150000  70.5760000  87.7310000  38.5400000  70.7940000  87.4110000
  39.7400000  71.3900000  88.1160000  83.1340000  36.8710000  88.9660000
  83.2350000  37.8110000  88.8190000  83.9090000  36.6230000  89.4720000
  45.6160000  69.7400000  91.8250000  45.9850000  70.6200000  91.8990000
  44.7300000  69.8780000  91.4900000  38.0260000  86.4140000  89.8060000
  37.8450000  86.2370000  90.7280000  38.5330000  85.6560000  89.5110000
  40.7170000  83.1460000  71.3060000  39.8660000  83.4870000  71.0300000
  41.0780000  82.7370000  70.5190000  33.8270000  62.7830000  90.4990000
  33.3540000  62.8200000  89.6680000  34.7410000  62.6410000  90.2480000
  72.2950000  78.6750000  86.0530000  71.4820000  78.7250000  86.5550000
  72.5030000  77.7410000  86.0260000  54.0160000  49.5490000  86.9160000
  53.4050000  50.2230000  86.6190000  53.4660000  48.7830000  87.0810000
  35.4390000  76.8360000  57.8800000  35.7400000  76.5040000  57.0340000
  35.4420000  76.0690000  58.4530000  80.8570000  55.1700000  94.7130000
  80.1480000  54.5430000  94.5730000  81.3430000  54.8210000  95.4600000
  60.3270000  77.5890000  84.4320000  60.2460000  76.6510000  84.2580000
  61.2020000  77.6880000  84.8070000  81.5100000  52.7320000  70.2760000
  82.0300000  53.5210000  70.1240000  80.8580000  52.9950000  70.9260000
  76.9690000  33.8010000  82.5740000  77.1100000  33.0710000  83.1770000
  77.3230000  33.4930000  81.7390000  67.1070000  88.3440000  58.7130000
  67.7200000  88.9430000  58.2870000  66.2430000  88.6490000  58.4350000
  65.4660000  31.0000000  92.5150000  65.7120000  31.9010000  92.7230000
  64.5100000  31.0190000  92.4580000  75.0730000  42.0150000  82.3040000
  75.1730000  42.3330000  81.4060000  74.9090000  41.0770000  82.2090000
  70.7450000  69.7090000  62.3990000  70.8240000  70.6490000  62.2370000
  70.0790000  69.6380000  63.0820000  53.7380000  40.7770000  60.9420000
  53.7200000  40.9620000  61.8810000  53.8740000  41.6320000  60.5320000
  42.2680000  42.8420000  67.2020000  42.3490000  41.8900000  67.2440000
  42.9020000  43.1080000  66.5360000  70.4560000  89.0020000  61.3020000
  71.0670000  88.9660000  60.5660000  71.0140000  88.9500000  62.0790000
  44.2840000  43.6760000  63.6070000  44.1510000  42.8710000  63.1060000
  45.1900000  43.9250000  63.4260000  82.6400000  83.8570000  77.5850000
  83.2590000  83.1570000  77.3790000  82.2250000  83.5780000  78.4020000
  38.3280000  53.6350000  58.9860000  37.7280000  52.9490000  58.6940000
  37.7970000  54.1920000  59.5560000  58.9950000  53.9300000  85.8640000
  58.3490000  54.6330000  85.7960000  59.7270000  54.2240000  85.3220000
  61.9750000  65.5810000  82.5180000  62.2620000  65.0900000  81.7490000
  61.5410000  64.9300000  83.0700000  69.5590000  79.4140000  60.6110000
  69.0840000  79.7330000  61.3780000  70.3800000  79.0680000  60.9630000
  51.8660000  55.9810000  75.1300000  52.2920000  56.0840000  74.2790000
  51.8980000  55.0400000  75.3020000  77.4150000  51.5280000  87.0990000
  77.7530000  51.4080000  87.9860000  77.0800000  50.6660000  86.8520000
  82.7120000  39.1440000  82.6820000  82.4760000  39.3080000  81.7690000
  83.5500000  38.6840000  82.6340000  53.3900000  45.5750000  93.7000000
  53.1310000  44.9190000  93.0520000  52.5680000  45.9890000  93.9630000
  81.4570000  47.7870000  84.2640000  81.3460000  48.7230000  84.0980000
  80.5700000  47.4640000  84.4220000  51.0810000  49.5630000  70.4160000
  51.8130000  48.9480000  70.3720000  51.4940000  50.4260000  70.4350000
  47.9910000  31.5850000  96.3900000  47.2420000  31.0000000  96.5000000
  48.7500000  31.0000000  96.3610000  36.8820000  58.7140000  92.2630000
  37.4940000  58.4280000  92.9400000  36.5460000  57.9010000  91.8840000
  80.3880000  62.3550000  71.8850000  79.8260000  63.0800000  72.1580000
  81.2380000  62.5480000  72.2810000  79.0970000  88.4360000  72.2250000
  78.5660000  89.0000000  72.7870000  79.8080000  89.0000000  71.9220000
  79.9200000  64.3380000  92.9820000  80.8200000  64.5150000  93.2530000
  79.7350000  63.4610000  93.3200000  76.4830000  31.0020000  70.6170000
  76.9820000  31.3670000  69.8860000  75.5710000  31.2070000  70.4120000
  83.6870000  71.7490000  71.8280000  83.3210000  72.5270000  72.2480000
  84.0550000  71.2380000  72.5490000  66.5700000  32.3200000  82.6700000
  67.1620000  32.7380000  83.2950000  66.0170000  33.0320000  82.3500000
  73.8460000  63.6980000  58.3000000  73.0660000  64.2240000  58.4740000
  74.3900000  64.2530000  57.7410000  80.7540000  52.8010000  92.2560000
  80.0020000  52.7420000  92.8440000  80.4440000  52.4250000  91.4320000
  62.1500000  44.0950000  62.6940000  61.8160000  43.1990000  62.6680000
  61.3650000  44.6440000  62.6880000  32.9100000  58.8700000  94.6700000
  32.9630000  57.9720000  94.9960000  33.7930000  59.2210000  94.7880000
  84.7300000  61.5380000  93.5160000  84.8230000  62.3170000  92.9690000
  84.2090000  61.8300000  94.2650000  34.0570000  82.0270000  56.9370000
  33.8440000  82.0280000  56.0040000  33.3250000  82.4850000  57.3510000
  48.0890000  78.5420000  86.3970000  48.7670000  79.2100000  86.4940000
  48.3060000  78.0960000  85.5780000  73.6670000  71.3970000  59.1520000
  73.9940000  70.7790000  58.4980000  73.9940000  71.0590000  59.9860000
  85.5250000  81.3740000  82.3660000  85.9220000  80.8750000  83.0800000
  86.2030000  81.9980000  82.1040000  37.2580000  80.8650000  83.0200000
  37.5060000  81.6080000  83.5700000  37.6460000  81.0580000  82.1660000
  84.1480000  73.8440000  70.0420000  83.8980000  74.2740000  69.2250000
  84.4290000  72.9680000  69.7760000  44.4010000  75.8820000  58.4600000
  44.4260000  75.5230000  57.5730000  44.4760000  76.8290000  58.3380000
  85.4330000  40.8400000  82.7520000  84.9160000  40.8760000  81.9470000
  84.7820000  40.8140000  83.4540000  72.0280000  86.3280000  92.1010000
  72.4810000  85.6250000  91.6370000  71.3330000  85.8860000  92.5880000
  54.1510000  35.9140000  79.6120000  54.1010000  35.0760000  80.0710000
  54.3180000  35.6770000  78.6990000  79.2890000  86.5620000  64.3080000
  79.4900000  86.3950000  63.3870000  79.5210000  85.7490000  64.7560000
  79.2080000  47.1940000  93.2310000  79.1600000  47.7940000  93.9750000
  79.5490000  46.3800000  93.6010000  46.8850000  76.1660000  58.4350000
  47.2180000  75.2710000  58.5010000  47.6690000  76.7150000  58.4470000
  62.8310000  84.0470000  92.8520000  63.0770000  84.9680000  92.9370000
  63.6260000  83.6150000  92.5390000  76.1060000  37.1590000  74.8470000
  75.4410000  37.8440000  74.7730000  76.9340000  37.6360000  74.9180000
  60.0850000  76.1030000  89.8390000  59.7760000  75.5470000  90.5540000
  59.5230000  75.8750000  89.0980000  66.4100000  65.2060000  72.5590000
  67.1480000  65.6960000  72.9220000  65.9850000  64.8120000  73.3220000
  55.8850000  80.9860000  96.5000000  56.7500000  80.6780000  96.2300000
  55.9060000  81.9300000  96.3400000  83.7070000  81.1470000  60.3550000
  82.8650000  81.5620000  60.5450000  83.7970000  81.2120000  59.4040000
  57.3740000  73.9770000  72.0270000  56.6700000  73.6330000  71.4770000
  57.6470000  73.2310000  72.5610000  83.1620000  35.8330000  84.7010000
  82.2560000  35.5400000  84.7980000  83.1850000  36.2630000  83.8450000
  54.1080000  60.8190000  76.6370000  55.0440000  60.6270000  76.6970000
  54.0610000  61.7740000  76.5900000  47.5900000  49.8730000  90.1990000
  47.7420000  50.6890000  89.7230000  47.9420000  49.1910000  89.6260000
  48.3040000  33.3060000  73.3280000  49.2090000  33.3120000  73.6410000
  48.2610000  34.0300000  72.7040000  31.9640000  36.6760000  68.6640000
  32.1540000  37.5700000  68.3810000  31.0220000  36.5750000  68.5220000
  31.0620000  31.9780000  96.4780000  31.9950000  32.1830000  96.4080000
  31.0270000  31.0220000  96.4940000  74.5070000  63.5060000  76.2360000
  75.1810000  62.9570000  75.8360000  73.6930000  63.0180000  76.1090000
  62.1450000  77.9190000  74.3770000  61.8870000  78.6840000  74.8920000
  62.1540000  77.1980000  75.0070000  86.8960000  43.6870000  66.0040000
  86.4430000  43.7170000  66.8470000  86.8570000  44.5870000  65.6800000
  67.6360000  81.1680000  93.7180000  66.6880000  81.0920000  93.8240000
  67.8940000  81.8420000  94.3480000  57.2550000  40.1840000  94.2540000
  56.4110000  40.6350000  94.2780000  57.9030000  40.8890000  94.2540000
  52.2030000  64.6830000  84.1090000  51.5680000  64.5070000  83.4150000
  52.9850000  64.1960000  83.8480000  69.4900000  42.5740000  94.3340000
  70.1740000  42.0190000  94.7070000  68.8560000  42.6830000  95.0420000
  78.4710000  47.7610000  78.1460000  78.6010000  48.2870000  77.3580000
  77.5210000  47.7320000  78.2620000  66.7470000  36.3850000  65.0540000
  67.6260000  36.3730000  64.6770000  66.8500000  36.8410000  65.8890000
  38.4680000  71.1900000  62.0250000  39.3570000  71.5330000  62.1140000
  38.5510000  70.2560000  62.2230000  58.5690000  35.9400000  60.9490000
  59.4480000  35.9090000  61.3260000  58.4180000  35.0540000  60.6180000
  63.6560000  84.4630000  74.3110000  64.3480000  85.1130000  74.4270000
  64.1220000  83.6420000  74.1510000  83.0370000  54.3720000  80.1920000
  82.3300000  53.7660000  80.4130000  83.6810000  54.2540000  80.8900000
  67.6380000  82.8990000  74.1320000  66.7470000  82.7050000  74.4220000
  67.5900000  82.8740000  73.1760000  33.7120000  56.7540000  91.9460000
  33.6570000  56.7990000  92.9000000  32.8980000  56.3280000  91.6780000
  39.5090000  43.4150000  58.5780000  38.6040000  43.1070000  58.5230000
  39.4440000  44.2760000  58.9910000  86.2200000  66.1470000  72.7910000
  86.7330000  66.8110000  72.3310000  86.0480000  66.5290000  73.6520000
  88.4190000  84.4750000  64.5910000  89.0000000  83.7430000  64.3880000
  88.9890000  85.1280000  64.9990000  50.0270000  46.0210000  77.5840000
  50.9790000  46.1180000  77.6040000  49.7010000  46.8980000  77.3800000
  60.1500000  40.0800000  57.9300000  59.8010000  39.5340000  58.6340000
  59.4220000  40.6530000  57.6870000  86.3380000  44.6250000  69.9140000
  86.6400000  45.4690000  70.2500000  85.3850000  44.6560000  70.0080000
  75.3890000  76.5550000  65.4160000  76.1170000  75.9740000  65.1940000
  74.8210000  76.0260000  65.9770000  89.0000000  31.1130000  79.5770000
  88.1990000  31.0000000  79.0660000  88.7220000  31.0030000  80.4860000
  36.1530000  72.4870000  75.7850000  36.2120000  72.9570000  74.9530000
  35.9220000  73.1610000  76.4240000  56.5500000  88.4140000  74.8510000
  55.7950000  89.0000000  74.8020000  57.3080000  89.0000000  74.8630000
  65.7450000  86.1540000  94.2760000  65.7410000  86.2850000  93.3290000
  64.9220000  85.6990000  94.4590000  54.4490000  63.7730000  90.9890000
  53.8640000  64.5060000  90.7970000  53.8860000  63.1180000  91.4020000
  39.7400000  84.4390000  95.5590000  39.7520000  84.2630000  96.5000000
  38.8230000  84.3290000  95.3070000  78.4730000  79.5490000  93.2450000
  78.1630000  80.4330000  93.4400000  78.6050000  79.1460000  94.1040000
  82.0580000  58.7440000  60.4720000  81.7220000  58.5630000  61.3500000
  81.4600000  59.4030000  60.1180000  68.6220000  69.7260000  80.0710000
  68.5900000  70.4980000  79.5070000  68.4900000  70.0680000  80.9550000
  71.9930000  83.2470000  59.2150000  71.3430000  83.6980000  58.6780000
  72.0990000  83.8080000  59.9840000  58.4080000  69.4650000  60.5880000
  57.8380000  68.9660000  61.1730000  58.2790000  70.3770000  60.8470000
  31.9420000  66.3430000  77.7880000  31.1790000  66.8890000  77.5970000
  32.1250000  65.8910000  76.9640000  42.3980000  49.1190000  90.2020000
  42.3990000  48.8480000  91.1200000  41.6680000  48.6390000  89.8100000
  71.3850000  72.2490000  85.5470000  71.2440000  71.3030000  85.5030000
  70.5070000  72.6250000  85.4890000  35.7470000  43.4950000  67.6530000
  36.3900000  43.7510000  66.9920000  35.0500000  43.0660000  67.1570000
  81.4600000  39.2440000  78.5650000  80.6110000  39.4750000  78.1870000
  81.5060000  39.7460000  79.3780000  56.5010000  59.8000000  72.2140000
  57.2030000  59.1550000  72.1370000  56.6000000  60.3560000  71.4410000
  77.2610000  88.9960000  69.9610000  78.2180000  89.0000000  69.9530000
  77.0290000  88.6930000  70.8390000  76.9870000  46.5750000  75.1260000
  77.0190000  45.9460000  74.4060000  77.8980000  46.6610000  75.4100000
  49.7600000  53.9510000  74.3920000  49.3950000  53.4110000  73.6910000
  50.0790000  53.3220000  75.0390000  58.0750000  82.7110000  66.6650000
  58.2140000  82.0970000  67.3850000  58.9530000  82.8880000  66.3280000
  77.3710000  88.4100000  75.5960000  76.6500000  88.9990000  75.8160000
  78.0470000  88.9830000  75.2330000  65.1350000  51.3760000  61.5960000
  65.9980000  51.7260000  61.8170000  64.9700000  51.6890000  60.7060000
  86.0280000  39.6480000  85.6000000  85.5320000  39.2190000  86.2970000
  86.1630000  38.9630000  84.9450000  78.8930000  54.5390000  87.9250000
  78.7320000  55.3760000  88.3600000  78.2880000  54.5350000  87.1820000
  42.3080000  39.0060000  82.6260000  42.2150000  39.8880000  82.9860000
  43.1960000  38.7410000  82.8660000  31.0220000  44.6040000  87.3770000
  31.0370000  43.7460000  86.9530000  31.0000000  44.4090000  88.3140000
  31.4490000  87.0530000  58.2400000  31.0000000  87.8640000  58.4790000
  31.0000000  86.3730000  58.7430000  68.8980000  46.1300000  75.5170000
  68.4480000  46.4540000  74.7370000  68.1930000  45.8840000  76.1170000
  43.1320000  50.6550000  59.6500000  42.6320000  51.3830000  60.0190000
  43.5140000  51.0100000  58.8460000  54.9670000  86.6920000  72.0680000
  55.8480000  86.6860000  72.4420000  55.1060000  86.8200000  71.1290000
  48.4730000  59.3250000  78.6980000  48.1870000  59.8720000  79.4300000
  47.7290000  58.7470000  78.5260000  46.6790000  85.5650000  56.8040000
  47.1960000  85.6730000  56.0050000  47.1050000  86.1370000  57.4440000
  72.2990000  75.2900000  85.5760000  72.9370000  74.6640000  85.2340000
  71.4490000  74.9340000  85.3140000  55.5110000  68.7150000  82.4940000
  56.4660000  68.6600000  82.4820000  55.3090000  69.4990000  81.9830000
  59.7360000  77.0700000  79.3860000  59.8890000  78.0120000  79.3270000
  60.3840000  76.7600000  80.0190000  35.1560000  83.2420000  89.7760000
  34.4930000  83.2740000  90.4650000  35.5500000  84.1150000  89.7800000
  45.8400000  62.6120000  73.4420000  45.4920000  61.8890000  73.9630000
  45.6520000  63.3940000  73.9610000  79.1470000  73.3470000  89.2320000
  79.7290000  72.8160000  88.6890000  79.1670000  74.2140000  88.8280000
  35.4140000  64.1170000  88.2040000  35.0850000  64.8960000  88.6520000
  34.7990000  63.9760000  87.4830000  88.0890000  58.7170000  69.4190000
  87.9000000  58.1040000  70.1290000  88.8210000  58.3180000  68.9470000
  83.0390000  80.8070000  70.1850000  83.5940000  80.0720000  70.4430000
  82.1920000  80.4090000  69.9830000  41.1040000  81.4270000  76.8510000
  41.7460000  81.6520000  77.5240000  40.5890000  80.7180000  77.2370000
  89.0000000  36.6160000  66.5350000  88.6840000  35.7140000  66.5020000
  88.2040000  37.1480000  66.5660000  71.3060000  82.7850000  91.8830000
  70.7270000  83.5430000  91.9580000  72.1890000  83.1550000  91.8900000
  77.4050000  52.0950000  56.2260000  77.5830000  53.0260000  56.0960000
  76.4800000  51.9930000  56.0000000  79.9990000  65.5170000  96.5000000
  80.6150000  66.2030000  96.2400000  80.0610000  64.8630000  95.8030000
  45.8940000  31.9940000  67.9940000  45.6680000  31.0760000  68.1440000
  45.0570000  32.4210000  67.8120000  59.3900000  86.3400000  93.0260000
  60.1550000  85.8020000  92.8220000  58.7240000  86.0570000  92.3990000
  70.5900000  59.3010000  56.0230000  70.7380000  60.2460000  56.0450000
  69.6370000  59.2080000  56.0010000  72.8880000  51.8230000  81.8650000
  73.5120000  51.9410000  82.5810000  72.0410000  51.7180000  82.2990000
  44.6390000  54.0370000  79.2470000  45.3750000  53.8090000  79.8140000
  44.6930000  54.9880000  79.1540000  62.5870000  74.3690000  70.2370000
  62.2600000  74.0180000  71.0650000  63.0410000  73.6320000  69.8270000
  58.5730000  61.0680000  89.3540000  58.6680000  61.2690000  90.2850000
  58.8790000  60.1640000  89.2720000  40.8570000  65.7170000  93.4930000
  41.6690000  65.9250000  93.9550000  41.1280000  65.1360000  92.7820000
  57.2350000  72.2470000  94.3750000  58.0640000  72.7240000  94.4040000
  57.4900000  71.3270000  94.3060000  58.9360000  42.9220000  59.0920000
  58.1860000  43.5080000  59.1950000  59.3640000  43.2180000  58.2890000
  48.5410000  71.5370000  56.8760000  48.3660000  70.8530000  57.5220000
  49.1890000  71.1490000  56.2870000  79.8620000  36.0230000  58.1300000
  79.7780000  35.1260000  58.4540000  78.9880000  36.3990000  58.2340000
  55.4040000  70.7230000  60.0050000  55.1600000  71.4490000  59.4310000
  55.8890000  70.1220000  59.4400000  37.7100000  88.9880000  90.2750000
  38.4480000  89.0000000  89.6650000  38.1080000  88.8200000  91.1300000
  88.7630000  84.3580000  59.4670000  89.0000000  83.4320000  59.5110000
  88.7970000  84.5700000  58.5330000  65.9890000  64.8680000  88.1080000
  65.7060000  64.0220000  88.4550000  65.9680000  65.4560000  88.8640000
  75.6960000  80.6840000  66.9110000  76.5260000  80.5070000  66.4690000
  75.3770000  81.4910000  66.5070000  84.0470000  33.4070000  83.1340000
  84.1950000  34.2590000  82.7240000  83.2900000  33.5440000  83.7040000
  43.9050000  35.1790000  55.9990000  44.8150000  35.4750000  56.0000000
  43.3900000  35.9870000  56.0040000  69.8460000  37.8880000  59.3320000
  69.9750000  38.7390000  59.7510000  69.2960000  38.0760000  58.5710000
  82.2190000  41.6980000  88.2400000  82.5560000  40.9010000  87.8320000
  82.5310000  41.6550000  89.1440000  50.5100000  70.7420000  83.2500000
  49.7930000  71.2610000  83.6150000  51.2290000  71.3660000  83.1470000
  37.5060000  46.5090000  77.2090000  36.7120000  47.0290000  77.3330000
  38.2040000  47.1570000  77.1140000  31.0000000  64.6220000  66.9890000
  31.0000000  65.5770000  66.9330000  31.0170000  64.4360000  67.9280000
  84.3310000  47.0210000  67.0000000  83.7730000  47.7980000  66.9610000
  84.3790000  46.7150000  66.0940000  41.6770000  47.3190000  87.2850000
  42.0250000  46.4580000  87.5180000  41.6250000  47.3070000  86.3290000
  58.5950000  70.9270000  86.5840000  59.2190000  70.4090000  87.0920000
  57.7450000  70.7360000  86.9810000  39.1420000  58.5070000  64.7220000
  38.2970000  58.0670000  64.6280000  39.7870000  57.8010000  64.6740000
  34.7050000  36.4700000  77.0610000  33.8090000  36.6780000  77.3270000
  35.0830000  36.0270000  77.8210000  74.4130000  74.3910000  71.3120000
  74.0550000  75.2380000  71.0470000  75.0150000  74.1530000  70.6060000
  51.8750000  44.2070000  56.0000000  52.5270000  44.9070000  56.0000000
  51.0330000  44.6620000  55.9990000  68.0730000  33.4010000  85.9080000
  68.2580000  34.1710000  85.3710000  67.1770000  33.5340000  86.2170000
  50.7120000  65.3430000  80.5630000  51.6050000  65.6780000  80.4870000
  50.1570000  66.1180000  80.4720000  40.1950000  44.8920000  56.6810000
  40.7320000  45.5330000  56.2160000  39.9610000  44.2460000  56.0140000
  82.1060000  84.9860000  94.5670000  82.6380000  85.1820000  95.3370000
  81.7620000  85.8350000  94.2900000  48.9200000  62.8040000  94.2100000
  49.3180000  61.9790000  94.4880000  49.6630000  63.3690000  93.9960000
  52.7300000  38.6360000  56.0380000  53.5900000  39.0530000  56.0000000
  52.1540000  39.3060000  56.4070000  51.6250000  44.6580000  58.4690000
  52.3390000  45.2950000  58.4810000  52.0620000  43.8070000  58.4920000
  78.3820000  76.4810000  73.3090000  77.7210000  77.1390000  73.5250000
  78.4710000  76.5330000  72.3570000  43.3770000  69.8790000  62.8490000
  43.6680000  68.9670000  62.8480000  44.1850000  70.3890000  62.9030000
  56.0400000  35.3290000  58.7290000  56.0810000  34.3910000  58.9120000
  56.0090000  35.7410000  59.5930000  77.8190000  53.9530000  90.4230000
  77.9250000  53.0030000  90.4680000  78.4560000  54.2950000  91.0500000
  63.2830000  51.4050000  91.9830000  63.2730000  52.2560000  91.5470000
  64.2100000  51.2330000  92.1540000  79.7360000  36.7230000  94.6490000
  80.0420000  37.0830000  93.8170000  79.7150000  35.7770000  94.5090000
  43.3620000  46.5130000  75.8340000  42.4590000  46.4440000  76.1440000
  43.4740000  47.4410000  75.6270000  79.1870000  43.8820000  93.4240000
  79.2250000  43.9120000  94.3800000  79.5670000  43.0330000  93.1960000
  59.9070000  38.9310000  92.3250000  59.0420000  39.3390000  92.3120000
  59.7700000  38.0660000  91.9380000  49.5070000  43.8070000  79.4510000
  50.1500000  43.3120000  78.9420000  50.0310000  44.3090000  80.0750000
  80.2450000  68.7600000  64.2540000  80.7660000  68.0540000  63.8700000
  80.4500000  69.5270000  63.7190000  80.2970000  39.6180000  94.0500000
  80.2110000  40.5620000  93.9140000  79.9240000  39.4660000  94.9190000
  50.1570000  88.3780000  69.1500000  50.8840000  89.0000000  69.1770000
  50.4850000  87.6470000  68.6270000  74.0400000  51.0260000  58.8030000
  74.0950000  51.9600000  59.0030000  73.2800000  50.9480000  58.2250000
  89.0000000  73.5100000  70.2390000  88.9540000  74.3510000  69.7850000
  88.0890000  73.2220000  70.3040000  43.3960000  88.8560000  73.6170000
  42.5920000  88.8850000  74.1360000  43.6190000  87.9260000  73.5720000
  52.5550000  64.6410000  72.9170000  52.1140000  63.8150000  72.7180000
  53.0050000  64.8740000  72.1050000  49.3230000  60.9340000  90.9560000
  48.3920000  60.7210000  91.0170000  49.5150000  61.4060000  91.7670000
  81.7760000  32.2750000  77.3010000  81.1100000  32.7970000  77.7480000
  81.2790000  31.6030000  76.8340000  32.2860000  41.3190000  61.9230000
  31.7840000  40.8850000  61.2330000  32.4400000  40.6340000  62.5740000
  38.8270000  75.7040000  84.0360000  38.2470000  75.5430000  84.7800000
  39.1140000  74.8330000  83.7630000  79.3330000  82.9810000  78.1380000
  78.8120000  83.3010000  78.8740000  78.7690000  82.3410000  77.7040000
  88.9190000  68.2980000  56.0350000  89.0000000  68.0700000  56.9610000
  89.0000000  69.2520000  56.0150000  82.9950000  67.5250000  96.4660000
  82.9270000  68.4800000  96.4600000  83.9360000  67.3520000  96.4990000
  56.1360000  68.3990000  68.7500000  56.4600000  69.2970000  68.6840000
  56.8340000  67.8640000  68.3710000  75.7080000  64.8330000  88.0690000
  75.5400000  65.4130000  87.3270000  76.6380000  64.9540000  88.2630000
  48.6070000  50.9600000  84.6200000  49.0140000  51.8070000  84.8020000
  47.6750000  51.1580000  84.5220000  88.8380000  57.1280000  66.1020000
  88.8640000  56.7640000  66.9860000  89.0000000  56.3780000  65.5290000
  78.7990000  55.1670000  71.6910000  78.4330000  54.3950000  72.1230000
  79.6740000  55.2610000  72.0670000  66.6230000  88.2160000  70.7220000
  66.3850000  89.0000000  71.2170000  66.6350000  87.5150000  71.3740000
  41.1160000  49.7510000  81.8100000  40.4920000  49.0280000  81.8710000
  41.9420000  49.3810000  82.1220000  45.6280000  67.3350000  60.9510000
  45.7810000  66.3930000  61.0270000  46.4770000  67.7330000  61.1450000
  41.3840000  75.1880000  63.3950000  41.9790000  75.3180000  64.1330000
  40.6280000  75.7400000  63.5950000  65.7200000  45.4280000  63.1500000
  65.4750000  46.3380000  63.3150000  66.6700000  45.4520000  63.0340000
  56.0720000  83.8140000  77.3440000  55.2170000  83.4650000  77.5950000
  56.6050000  83.7370000  78.1360000  68.8990000  40.1300000  83.7010000
  69.8100000  40.2120000  83.9820000  68.4210000  39.9040000  84.4990000
  36.5060000  38.5480000  64.7420000  35.9620000  38.1030000  65.3920000
  37.2900000  38.0020000  64.6720000  65.3700000  50.5290000  78.0590000
  66.0170000  49.8380000  77.9180000  64.5270000  50.1090000  77.8850000
  82.6010000  67.5000000  76.9770000  83.5510000  67.4290000  77.0620000
  82.3590000  66.7860000  76.3880000  53.5780000  50.7340000  61.5370000
  53.5450000  49.8890000  61.9850000  54.5120000  50.9330000  61.4690000
  35.7970000  65.4730000  62.2330000  35.9710000  64.7340000  61.6510000
  36.5790000  65.5360000  62.7810000  42.2220000  48.7330000  62.0980000
  42.2780000  49.6270000  61.7620000  42.9480000  48.2720000  61.6760000
  60.2370000  59.2980000  82.6720000  59.4970000  59.7970000  83.0160000
  60.5020000  58.7300000  83.3960000  80.2790000  65.7910000  87.6080000
  80.4380000  65.6320000  86.6770000  80.0460000  64.9320000  87.9610000
  41.5310000  43.8430000  94.0630000  41.6060000  44.3790000  93.2740000
  42.3310000  44.0290000  94.5560000  74.7350000  74.6040000  96.1000000
  75.6040000  74.6330000  96.5000000  74.4310000  75.5120000  96.1210000
  72.5920000  42.3690000  94.1750000  72.3740000  43.2950000  94.2780000
  73.5390000  42.3290000  94.3080000  44.9990000  88.9220000  77.5670000
  45.8010000  89.0000000  77.0510000  45.2970000  88.9230000  78.4770000
  37.4340000  87.9580000  71.0380000  38.2170000  87.8410000  71.5770000
  37.4080000  87.1790000  70.4820000  62.1280000  60.3450000  93.4550000
  63.0050000  60.7290000  93.4550000  62.2800000  59.4000000  93.4560000
  74.7410000  50.1500000  56.0460000  73.8420000  49.8240000  56.0000000
  75.0900000  49.7760000  56.8550000  55.3880000  31.2590000  88.7390000
  54.6260000  31.0250000  89.2690000  55.0540000  31.8930000  88.1040000
  31.0000000  35.5950000  78.3630000  31.0280000  36.4310000  78.8270000
  31.9190000  35.3410000  78.2690000  31.3500000  33.5250000  66.2490000
  31.0230000  32.6300000  66.3330000  31.1080000  33.9470000  67.0740000
  86.8110000  34.1160000  85.0550000  87.1750000  33.2350000  85.1370000
  85.9100000  33.9770000  84.7620000  77.4480000  76.8100000  92.5810000
  77.0650000  77.3590000  91.8980000  78.3500000  77.1210000  92.6610000
  70.8980000  44.3240000  76.6810000  70.6720000  43.8530000  77.4830000
  71.8110000  44.0890000  76.5150000  70.3670000  81.1410000  82.2290000
  70.9760000  81.8400000  82.4670000  69.7400000  81.5600000  81.6380000
  78.1860000  71.8940000  95.9380000  77.6870000  72.7000000  96.0770000
  77.5470000  71.1920000  96.0630000  59.7560000  69.6380000  96.3060000
  59.0270000  70.2260000  96.4990000  59.4260000  69.0660000  95.6120000
  80.9900000  49.4480000  77.7210000  81.0570000  48.4950000  77.7770000
  80.9500000  49.7390000  78.6330000  42.3300000  76.3430000  92.8080000
  42.9780000  75.6840000  92.5600000  42.7830000  77.1790000  92.6980000
  50.1990000  53.7220000  56.0000000  50.2860000  52.7690000  56.0000000
  49.2540000  53.8780000  56.0000000  35.4890000  88.4160000  92.6530000
  34.7320000  89.0000000  92.7020000  36.2440000  88.9900000  92.7870000
  31.0040000  62.5040000  96.2840000  31.0000000  63.4610000  96.2820000
  31.0190000  62.2630000  95.3570000  35.9580000  55.3510000  56.1930000
  36.8930000  55.2890000  56.0000000  35.7830000  56.2910000  56.2390000
  71.2340000  61.8750000  58.7840000  70.3600000  61.5760000  58.5340000
  71.1080000  62.7840000  59.0580000  40.3980000  82.7180000  64.7650000
  40.4760000  83.6500000  64.5610000  39.4660000  82.5270000  64.6590000
  46.4230000  42.2590000  96.5000000  46.6390000  41.3490000  96.2990000
  47.2570000  42.7250000  96.4290000  62.9760000  69.2120000  83.1760000
  63.4150000  70.0350000  82.9660000  62.9690000  69.1800000  84.1330000
  77.4180000  86.6100000  91.6670000  77.6790000  86.4490000  92.5740000
  78.2440000  86.6940000  91.1910000  85.0680000  58.1040000  72.9540000
  85.8340000  57.5410000  72.8460000  84.7430000  57.9000000  73.8310000
  61.4280000  52.0290000  85.8670000  61.6020000  51.0890000  85.8280000
  62.2960000  52.4320000  85.9110000  66.1880000  53.5190000  76.6170000
  66.1540000  52.5630000  76.6440000  67.1220000  53.7250000  76.5650000
  33.6070000  73.7250000  91.8470000  33.6390000  72.7710000  91.9170000
  32.9510000  73.9910000  92.4910000  48.1740000  35.6620000  56.0170000
  47.9840000  36.6000000  56.0470000  47.3140000  35.2430000  56.0000000
  31.5540000  43.1270000  77.0880000  31.0000000  43.8750000  76.8650000
  31.0000000  42.5740000  77.6390000  88.4200000  45.4290000  85.9270000
  89.0000000  46.1900000  85.9140000  89.0000000  44.6820000  85.7800000
  78.7930000  40.6020000  76.4230000  78.2810000  41.4100000  76.4470000
  78.1390000  39.9040000  76.3860000  71.1560000  36.9930000  92.5100000
  71.1560000  36.0470000  92.6550000  71.2070000  37.0900000  91.5580000
  58.5490000  80.4940000  77.1940000  59.0470000  80.1270000  77.9240000
  58.5530000  81.4390000  77.3520000  31.6640000  88.2150000  61.0670000
  31.2670000  89.0000000  60.6900000  31.0000000  87.5340000  60.9570000
  37.6530000  37.1170000  58.7410000  37.5070000  38.0600000  58.6580000
  36.7970000  36.7620000  58.9790000  39.6760000  42.5070000  92.0400000
  38.7520000  42.3110000  92.1890000  40.1460000  41.9010000  92.6140000
  82.2170000  53.2320000  83.5110000  81.6560000  52.8250000  84.1710000
  83.0560000  53.3600000  83.9540000  74.2990000  64.2360000  73.8540000
  74.4400000  63.4820000  73.2820000  73.3910000  64.4930000  73.6920000
  36.2260000  37.3300000  83.0970000  35.4260000  36.8770000  82.8310000
  36.7650000  36.6490000  83.5010000  63.1570000  53.2090000  75.8050000
  63.8190000  52.5200000  75.7530000  63.6570000  54.0250000  75.7840000
  52.1030000  41.0680000  86.6470000  51.4490000  40.3700000  86.6320000
  51.8370000  41.6620000  85.9450000  65.1790000  67.3720000  94.3140000
  65.7450000  68.1420000  94.2740000  64.3000000  67.7270000  94.4510000
  86.1850000  60.8610000  87.6890000  86.3640000  60.5080000  86.8170000
  86.9310000  60.5800000  88.2190000  58.7000000  86.0270000  96.4760000
  58.7940000  85.0740000  96.4690000  59.5990000  86.3560000  96.5000000
  76.4130000  86.2430000  74.7990000  76.4430000  85.5850000  74.1040000
  76.0470000  85.7790000  75.5530000  83.9670000  84.0340000  68.5730000
  84.1390000  84.7880000  68.0100000  84.2410000  83.2780000  68.0530000
  69.2640000  84.7780000  94.3320000  68.4490000  84.8620000  94.8270000
  69.1910000  83.9310000  93.8920000  88.4050000  73.2200000  96.4620000
  88.9820000  72.4560000  96.4600000  89.0000000  73.9700000  96.5000000
  86.7490000  57.6450000  91.1090000  85.9560000  57.1350000  91.2720000
  86.8750000  58.1550000  91.9100000  75.9800000  55.9660000  87.8850000
  75.8820000  56.2080000  86.9650000  76.5560000  56.6380000  88.2500000
  57.0810000  78.6910000  71.7190000  56.2200000  78.7410000  71.3060000
  56.9000000  78.4380000  72.6250000  31.5730000  63.8760000  82.1170000
  31.0000000  63.1250000  81.9600000  31.0000000  64.5370000  82.5070000
  80.2630000  32.6650000  85.1660000  79.4730000  33.0940000  84.8390000
  80.9780000  33.0740000  84.6790000  45.7290000  47.8740000  58.7880000
  46.6280000  47.6230000  58.9990000  45.6000000  48.7080000  59.2400000
  55.1200000  75.6140000  63.3550000  54.4140000  75.7300000  62.7190000
  55.7520000  75.0490000  62.9120000  69.6800000  37.3750000  80.3710000
  70.1040000  36.5710000  80.6690000  69.6100000  37.2720000  79.4210000
  59.6550000  37.2570000  80.4400000  59.8580000  37.3740000  79.5120000
  59.2820000  36.3770000  80.4960000  55.6390000  50.8350000  76.1600000
  55.2210000  51.3640000  75.4810000  54.9110000  50.4340000  76.6350000
  78.6910000  70.1170000  72.6310000  79.4080000  69.5060000  72.7970000
  79.0810000  70.9830000  72.7530000  57.9680000  85.4150000  56.0000000
  58.0050000  86.3710000  56.0000000  58.8860000  85.1390000  56.0000000
  79.4540000  66.0890000  66.2290000  80.1380000  66.6140000  65.8150000
  78.7790000  66.7230000  66.4730000  43.4090000  79.8020000  91.9240000
  43.5740000  80.7440000  91.9650000  42.6450000  79.6660000  92.4850000
  45.7830000  52.6360000  59.7770000  45.7010000  52.2190000  58.9200000
  44.8810000  52.8060000  60.0490000  44.2870000  88.8380000  68.6490000
  45.0700000  89.0000000  69.1740000  44.5640000  89.0000000  67.7470000
  33.6280000  74.7710000  67.4010000  33.4110000  75.4900000  66.8090000
  33.5500000  73.9830000  66.8620000  42.0520000  47.8620000  94.0320000
  42.7900000  48.4700000  94.0130000  41.2880000  48.4170000  94.1930000
  40.4000000  67.4430000  59.2700000  39.9590000  67.4610000  60.1180000
  39.9280000  68.0850000  58.7390000  61.4940000  83.8750000  76.5550000
  62.0990000  83.3180000  76.0650000  61.2150000  83.3340000  77.2940000
  74.0130000  67.0830000  66.8570000  74.7530000  67.5590000  67.2350000
  74.3440000  66.7480000  66.0230000  70.8830000  82.3780000  61.8270000
  70.8470000  81.7110000  62.5120000  70.8770000  81.8830000  61.0080000
  49.6110000  40.3080000  84.5450000  49.2390000  40.8720000  85.2230000
  48.9120000  40.2200000  83.8960000  40.1950000  88.6930000  77.8130000
  39.8530000  89.0000000  78.6520000  39.5590000  89.0000000  77.1670000
  78.9760000  79.8830000  71.9870000  79.8960000  79.6260000  71.9250000
  78.5070000  79.0600000  72.1270000  45.9460000  45.7710000  83.4710000
  46.1410000  44.8340000  83.4500000  46.8040000  46.1950000  83.4620000
  32.8060000  66.1590000  85.1180000  32.7510000  65.9320000  86.0460000
  31.8940000  66.1930000  84.8250000  80.7840000  76.7500000  80.0740000
  81.4250000  77.4590000  80.0300000  79.9350000  77.1940000  80.0750000
  67.6300000  36.4990000  73.5700000  68.5180000  36.8350000  73.4450000
  67.4640000  36.6050000  74.5070000  68.9270000  33.9110000  78.4260000
  69.2300000  34.7130000  78.8520000  69.5740000  33.7460000  77.7390000
  33.8110000  74.7190000  56.5660000  33.5970000  75.4610000  56.0000000
  33.2960000  74.8670000  57.3600000  58.9980000  31.5830000  92.1410000
  58.9210000  31.0000000  92.8960000  58.1020000  31.6800000  91.8190000
  44.3710000  74.2700000  63.6050000  45.1370000  73.9190000  63.1500000
  43.9600000  73.5050000  64.0090000  43.3780000  61.0340000  91.3170000
  43.0490000  61.9070000  91.5330000  42.9400000  60.8100000  90.4950000
  89.0000000  67.2230000  63.1560000  88.8650000  66.3330000  62.8320000
  88.1160000  67.5710000  63.2760000  32.4000000  35.5700000  96.0950000
  33.1410000  35.5220000  95.4910000  32.0290000  34.6870000  96.0910000
  59.5310000  59.3800000  71.2440000  60.4030000  58.9870000  71.2270000
  59.6590000  60.2310000  71.6650000  88.7690000  37.1400000  72.9050000
  89.0000000  37.0850000  71.9780000  88.9990000  38.0340000  73.1580000
  45.1710000  72.2530000  86.6080000  44.5030000  71.7160000  86.1810000
  45.2700000  71.8660000  87.4780000  73.6160000  39.5330000  96.5000000
  72.9000000  40.0320000  96.1090000  73.3170000  38.6240000  96.4740000
  66.6530000  55.1680000  71.8400000  66.4150000  54.4650000  71.2360000
  66.1120000  55.9110000  71.5690000  46.9890000  46.2040000  72.5850000
  46.5030000  45.3820000  72.6520000  47.5190000  46.1050000  71.7930000
  41.4920000  72.1470000  63.2600000  41.7880000  72.2690000  64.1620000
  42.2980000  72.1320000  62.7430000  41.7600000  34.5560000  57.2480000
  41.0940000  34.2830000  56.6170000  42.0110000  33.7490000  57.6970000
  88.9310000  34.6560000  75.3590000  89.0000000  35.4220000  74.7890000
  88.0190000  34.3770000  75.2770000  52.5440000  36.2950000  88.0990000
  52.0470000  37.1050000  88.2130000  52.3960000  36.0490000  87.1860000
  77.3320000  33.0140000  78.5230000  76.9640000  33.4930000  79.2650000
  76.5910000  32.8830000  77.9310000  35.7960000  63.2190000  59.6690000
  34.9750000  62.7770000  59.4540000  36.2200000  62.6420000  60.3050000
  80.8660000  73.5350000  68.0690000  80.8110000  73.8440000  67.1650000
  80.2970000  72.7660000  68.0950000  38.8430000  86.2020000  86.8520000
  39.6410000  85.9380000  86.3950000  38.2650000  85.4420000  86.7850000
  49.3790000  54.6400000  84.9530000  49.9780000  54.0560000  85.4180000
  49.3910000  55.4510000  85.4620000  81.6620000  31.0000000  82.3890000
  82.5440000  31.0170000  82.0200000  81.7970000  31.0300000  83.3360000
  59.9690000  36.2140000  90.1170000  59.3520000  35.5620000  90.4480000
  60.7470000  36.1090000  90.6640000  85.5420000  74.9270000  66.2540000
  84.9370000  74.6600000  65.5630000  85.0790000  74.7310000  67.0690000
  53.6370000  50.2500000  82.2960000  54.5360000  50.5620000  82.3990000
  53.7300000  49.3550000  81.9660000  61.7330000  79.7460000  56.0000000
  61.0200000  79.2260000  56.3690000  62.4940000  79.1650000  56.0290000
  76.2320000  88.2030000  96.4400000  76.7590000  89.0000000  96.4960000
  76.8690000  87.4900000  96.5000000  76.3800000  56.8990000  82.8080000
  76.5940000  56.0180000  83.1160000  77.2150000  57.2570000  82.5060000
  58.2870000  78.6220000  90.1240000  58.4350000  77.8140000  90.6150000
  58.2530000  78.3430000  89.2080000  68.4160000  69.8240000  58.5920000
  67.9350000  69.2360000  59.1740000  68.9570000  70.3530000  59.1790000
  31.5730000  31.0540000  59.5770000  31.0280000  31.0000000  58.7920000
  31.0000000  31.4390000  60.2400000  50.9190000  50.1030000  63.2550000
  51.3650000  50.8230000  62.8100000  50.0270000  50.1210000  62.9050000
  68.3160000  60.2860000  84.7700000  69.2640000  60.3600000  84.6650000
  68.1570000  59.3460000  84.8580000  58.1710000  69.5510000  70.5220000
  57.4560000  69.3540000  71.1270000  58.5730000  68.7010000  70.3410000
  84.1880000  88.1680000  91.5290000  83.7960000  88.9930000  91.8130000
  84.9180000  88.4300000  90.9670000  59.4920000  56.6870000  79.3300000
  59.2930000  57.0970000  78.4880000  58.7000000  56.8180000  79.8530000
  68.6980000  31.5940000  59.8320000  69.2250000  31.0000000  60.3670000
  68.2320000  31.0190000  59.2230000  60.4600000  41.8910000  79.8810000
  60.4020000  42.1920000  78.9740000  60.3810000  42.6890000  80.4040000
  58.1060000  72.3240000  79.2660000  57.6520000  73.1560000  79.1330000
  57.4280000  71.7280000  79.5830000  35.3970000  31.5730000  56.0610000
  36.0670000  32.2530000  56.0000000  35.7000000  31.0000000  56.7660000
  85.7560000  89.0000000  63.8670000  84.9470000  88.5470000  64.1020000
  85.8860000  88.7940000  62.9410000  41.7280000  49.2750000  96.5000000
  42.3130000  50.0320000  96.4890000  42.3130000  48.5180000  96.4710000
  63.8410000  57.9860000  68.1200000  62.9390000  57.7070000  67.9670000
  64.2370000  58.0050000  67.2480000  65.9270000  76.5930000  62.8000000
  66.8160000  76.7610000  62.4900000  65.3720000  77.1440000  62.2480000
  76.4860000  83.4030000  56.6160000  75.6330000  83.2130000  56.2260000
  76.9020000  84.0070000  56.0000000  44.4700000  83.5400000  96.5000000
  44.0340000  82.8470000  96.0050000  45.3810000  83.5080000  96.2070000
  72.0030000  72.7020000  95.5740000  71.5390000  72.2610000  96.2850000
  71.3640000  72.7480000  94.8620000  86.2380000  88.9990000  56.0100000
  85.9990000  88.0720000  56.0000000  87.1950000  89.0000000  56.0160000
  38.0020000  77.6430000  63.5770000  38.9510000  77.5910000  63.6890000
  37.6910000  78.0880000  64.3660000  82.9980000  43.2250000  69.9900000
  82.4040000  43.9620000  69.8450000  82.5140000  42.4610000  69.6740000
  86.4000000  70.0240000  62.3360000  86.4650000  70.8510000  61.8580000
  86.5590000  70.2620000  63.2500000  66.1120000  63.0640000  64.7000000
  65.3020000  62.8960000  65.1810000  66.4970000  63.8250000  65.1360000
  39.2320000  75.9110000  56.1150000  38.3720000  76.3140000  56.0000000
  39.8330000  76.6500000  56.2060000  63.0670000  31.0000000  69.6010000
  63.4080000  31.7330000  70.1120000  63.2550000  31.2340000  68.6910000
  42.2980000  65.8730000  60.9040000  41.5640000  65.7300000  61.5020000
  42.4060000  66.8240000  60.8810000  58.5410000  88.4550000  69.1440000
  57.8000000  89.0000000  68.8810000  59.3110000  89.0000000  68.9780000
  54.9270000  37.5020000  82.7100000  55.5450000  36.7720000  82.7460000
  54.3040000  37.2560000  82.0260000  43.9550000  70.0610000  94.2360000
  44.7800000  70.5400000  94.1600000  43.2790000  70.7370000  94.1760000
  37.8610000  84.4390000  63.2590000  37.2260000  84.3810000  62.5460000
  38.6750000  84.1020000  62.8830000  56.1870000  64.7480000  67.4400000
  56.6080000  63.9820000  67.0510000  56.0370000  64.5020000  68.3540000
  81.5780000  50.4120000  65.8680000  81.3810000  49.5160000  65.5960000
  80.8180000  50.9210000  65.5850000  70.5600000  61.5290000  80.3020000
  70.0780000  62.3000000  80.0020000  70.1410000  60.7940000  79.8540000
  36.1850000  35.3640000  56.3920000  35.6040000  34.7100000  56.0050000
  36.4480000  34.9850000  57.2310000  50.8020000  59.6930000  79.5600000
  50.7580000  60.6350000  79.7200000  51.6430000  59.5630000  79.1210000
  48.5420000  37.3210000  66.5650000  48.1690000  37.4360000  65.6910000
  49.1270000  36.5680000  66.4790000  70.0280000  49.2660000  83.6870000
  70.7170000  48.6220000  83.8460000  70.4980000  50.0740000  83.4780000
  41.8460000  43.3990000  87.6120000  42.5610000  44.0170000  87.4620000
  41.6210000  43.0750000  86.7400000  58.3950000  37.9650000  71.6320000
  58.6950000  38.0820000  70.7310000  59.1250000  37.5310000  72.0740000
  86.2810000  78.7740000  70.1720000  86.5280000  77.8490000  70.1820000
  85.5630000  78.8230000  69.5400000  82.6600000  57.1140000  87.9970000
  83.0710000  57.5570000  87.2550000  83.3910000  56.7390000  88.4890000
  44.1920000  84.6390000  56.1880000  43.8440000  85.5100000  56.0000000
  44.1820000  84.5770000  57.1430000  64.6060000  79.7840000  94.2850000
  63.8410000  79.3200000  93.9440000  64.2980000  80.6800000  94.4300000
  66.3250000  66.8960000  66.6190000  66.4290000  66.6560000  65.6980000
  66.4500000  67.8450000  66.6350000  34.2210000  50.7030000  87.9220000
  33.4480000  50.2020000  87.6640000  33.8980000  51.5950000  88.0500000
  88.9390000  63.3450000  79.3580000  88.9960000  62.6310000  78.7230000
  89.0000000  62.9130000  80.2100000  85.6920000  50.7040000  62.4180000
  84.8700000  50.3390000  62.0920000  86.2110000  49.9400000  62.6690000
  84.2700000  31.4640000  84.6910000  84.2420000  31.0000000  83.8540000
  85.2030000  31.5820000  84.8700000  61.4260000  36.1330000  82.1680000
  60.8010000  36.4810000  82.8040000  62.2720000  36.1770000  82.6130000
  79.2030000  36.4140000  75.4620000  78.5080000  35.9570000  75.9360000
  79.0560000  36.1890000  74.5430000  80.7320000  41.5720000  66.2080000
  81.2920000  40.8150000  66.0390000  81.1770000  42.0470000  66.9110000
  59.4740000  39.2110000  75.2030000  59.5640000  38.5780000  74.4910000
  60.2930000  39.7070000  75.1900000  38.8460000  59.4530000  61.1910000
  38.2610000  59.1100000  61.8670000  38.5490000  60.3520000  61.0500000
  68.8510000  78.2250000  87.3060000  69.2950000  78.3700000  88.1410000
  68.0790000  77.7060000  87.5320000  62.3080000  50.5760000  59.6460000
  61.8530000  49.7420000  59.7560000  63.2280000  50.3340000  59.5320000
  56.2180000  84.0160000  81.4500000  55.6380000  83.5640000  82.0620000
  55.8730000  83.7950000  80.5840000  66.3050000  33.9580000  76.6550000
  66.7850000  34.7860000  76.6380000  66.9080000  33.3400000  77.0670000
  51.9550000  61.5590000  93.2830000  51.8700000  60.9650000  94.0280000
  52.8780000  61.8130000  93.2820000  69.9530000  43.5860000  82.9430000
  69.3260000  44.3090000  82.9520000  69.4100000  42.7970000  82.9400000
  74.2540000  41.0450000  75.9290000  73.8000000  40.8370000  76.7450000
  74.0420000  40.3170000  75.3440000  57.1970000  57.4410000  90.2980000
  57.3360000  58.3010000  89.9010000  57.8970000  57.3600000  90.9470000
  51.9980000  58.9050000  62.2040000  51.6100000  58.0920000  62.5270000
  51.5840000  59.0460000  61.3510000  68.4750000  60.1250000  73.0480000
  67.8170000  60.4930000  72.4580000  69.3000000  60.5180000  72.7630000
  31.0000000  77.3400000  95.9380000  31.1690000  78.0960000  96.5000000
  31.1630000  76.5820000  96.5000000  34.9150000  43.9750000  73.8840000
  34.0830000  44.0690000  74.3460000  35.4530000  44.6980000  74.2070000
  56.1560000  81.1390000  79.9080000  55.8100000  80.2490000  79.8430000
  55.7190000  81.6180000  79.2040000  58.4420000  51.3990000  93.2700000
  57.8300000  51.2680000  93.9940000  58.6670000  52.3290000  93.3110000
  63.1320000  33.8870000  68.8740000  62.1910000  34.0480000  68.8110000
  63.5260000  34.7600000  68.8780000  57.6580000  39.0180000  83.0940000
  58.5050000  39.0200000  82.6490000  57.8620000  39.2460000  84.0010000
  78.4920000  48.8530000  96.4960000  78.1540000  47.9580000  96.4960000
  79.4440000  48.7500000  96.5000000  70.0360000  67.5720000  58.4650000
  70.8970000  67.1880000  58.2940000  69.4740000  66.8220000  58.6610000
  35.7520000  48.1540000  87.5360000  35.1580000  48.5470000  86.8980000
  36.1020000  48.8980000  88.0280000  39.0390000  69.2000000  67.0610000
  39.3860000  69.5620000  67.8760000  38.2520000  68.7230000  67.3260000
  73.7290000  55.4640000  70.4390000  74.2740000  55.8780000  69.7700000
  72.8310000  55.6790000  70.1860000  73.3670000  38.6420000  58.1360000
  74.2450000  38.4350000  58.4570000  73.4170000  39.5610000  57.8750000
  64.6120000  40.0250000  60.3930000  65.1880000  40.2160000  61.1330000
  64.1190000  40.8340000  60.2580000  46.1830000  65.4080000  76.3080000
  46.1080000  64.4640000  76.1750000  46.7870000  65.7000000  75.6250000
  75.0490000  37.8050000  61.1450000  75.2680000  36.9820000  60.7090000
  75.6150000  37.8260000  61.9180000  67.7090000  50.9700000  91.1780000
  66.7950000  51.1010000  91.4300000  67.7760000  50.0320000  90.9970000
  31.0000000  68.0780000  59.2330000  31.7810000  67.9620000  58.6920000
  31.3270000  68.4590000  60.0480000  72.6070000  50.5210000  93.0450000
  72.0010000  49.8350000  92.7670000  73.2770000  50.0600000  93.5500000
  46.0180000  66.8610000  84.4780000  45.9840000  67.6950000  84.9460000
  45.1360000  66.5000000  84.5660000  61.1510000  88.9380000  82.6420000
  60.1960000  89.0000000  82.6320000  61.4050000  89.0000000  81.7210000
  42.9600000  56.6870000  65.1220000  43.8210000  56.9180000  65.4700000
  42.8680000  57.2260000  64.3350000  49.8340000  56.7990000  67.7330000
  49.3810000  57.5700000  67.3930000  50.0940000  56.3090000  66.9530000
  57.0560000  42.9920000  56.0000000  56.8940000  43.9350000  56.0190000
  57.3400000  42.7790000  56.8900000  74.2280000  72.2590000  62.7860000
  73.4970000  72.1540000  62.1770000  73.8270000  72.2040000  63.6540000
  38.2770000  72.7950000  85.9350000  37.5170000  73.3740000  85.8880000
  39.0270000  73.3710000  85.7890000  86.4990000  61.5010000  90.9440000
  86.3300000  60.7350000  91.4930000  87.1200000  62.0260000  91.4500000
  50.8610000  76.7980000  85.6200000  51.6440000  76.6540000  85.0890000
  51.1250000  77.4580000  86.2610000  31.9240000  71.6070000  71.5410000
  31.0000000  71.3600000  71.5230000  32.3420000  70.9370000  72.0820000
  88.3720000  88.7580000  80.6880000  88.8980000  89.0000000  79.9260000
  89.0000000  88.3800000  81.3030000  79.7580000  42.2060000  70.8670000
  78.9750000  42.7440000  70.9780000  80.4840000  42.7880000  71.0960000
  72.2190000  71.4820000  68.2780000  72.2000000  72.3620000  67.9020000
  72.7880000  70.9820000  67.6920000  67.2920000  79.7900000  88.6770000
  67.4020000  79.3980000  89.5440000  66.4380000  79.4770000  88.3790000
  58.7900000  48.7690000  90.3990000  58.9470000  47.9430000  90.8560000
  57.9090000  48.6790000  90.0350000  40.3000000  59.8540000  95.9140000
  40.8650000  60.3620000  96.4970000  39.6870000  59.4100000  96.5000000
  84.8580000  46.8970000  77.5250000  85.0750000  46.1240000  77.0040000
  83.9430000  47.0810000  77.3110000  59.5840000  48.4470000  66.1300000
  58.9930000  48.5150000  66.8800000  59.0220000  48.5850000  65.3680000
  77.5160000  41.3980000  81.2000000  77.2000000  40.5100000  81.3650000
  78.4690000  41.3110000  81.1650000  51.5350000  33.4200000  75.4600000
  51.3920000  34.3660000  75.4350000  52.0350000  33.2320000  74.6660000
  55.4580000  44.3140000  80.6040000  54.7230000  44.1660000  81.1990000
  55.0510000  44.5840000  79.7810000  86.7700000  61.4120000  69.0750000
  85.9280000  61.1760000  69.4630000  86.6440000  62.3030000  68.7500000
  49.6440000  55.0670000  95.0680000  49.1520000  55.5530000  94.4070000
  50.5380000  55.0370000  94.7270000  74.0520000  54.8490000  67.5020000
  73.4360000  54.9240000  66.7740000  73.7510000  54.0850000  67.9940000
  45.0120000  75.0200000  85.6170000  44.1110000  74.7000000  85.6570000
  44.9280000  75.9740000  85.5960000  31.5860000  34.9350000  56.0020000
  31.0000000  35.6910000  56.0040000  31.0000000  34.1770000  56.0000000
  71.9860000  36.2050000  57.1520000  72.8270000  36.5580000  56.8650000
  71.6600000  36.8450000  57.7850000  73.0980000  49.3020000  66.0630000
  72.9540000  49.3500000  65.1180000  72.2220000  49.1890000  66.4330000
  69.7660000  58.4350000  61.2960000  69.8820000  58.8340000  62.1580000
  68.8480000  58.5970000  61.0770000  85.2180000  35.7630000  77.9190000
  84.2900000  35.6470000  78.1200000  85.5560000  34.8720000  77.8260000
  67.3270000  64.1930000  75.4060000  66.5610000  64.4040000  75.9400000
  67.7780000  65.0300000  75.2920000  84.0290000  76.9140000  88.1870000
  83.6910000  76.0470000  87.9630000  84.9440000  76.7600000  88.4250000
  59.3900000  31.5860000  76.4630000  59.1830000  31.0000000  77.1910000
  59.5980000  31.0000000  75.7350000  71.0460000  49.6090000  61.3900000
  71.8790000  49.9470000  61.7180000  70.4230000  50.3220000  61.5370000
  51.5880000  41.0430000  78.2770000  52.3050000  40.4090000  78.2480000
  51.0010000  40.7100000  78.9560000  56.2310000  87.2290000  94.3200000
  56.3080000  87.5800000  95.2070000  57.1310000  87.0350000  94.0590000
  82.5630000  47.9140000  94.0030000  81.8080000  48.5000000  93.9590000
  82.1850000  47.0350000  93.9990000  88.9440000  46.2460000  64.9140000
  88.9920000  46.3780000  65.8600000  89.0000000  47.1290000  64.5460000
  39.4880000  52.6900000  56.5830000  39.3650000  53.4420000  56.0040000
  39.4520000  51.9310000  56.0000000  40.8690000  52.7910000  84.3180000
  40.8950000  53.3480000  83.5410000  40.4340000  53.3250000  84.9830000
  84.3570000  43.3160000  56.0240000  83.4710000  42.9540000  56.0150000
  84.2290000  44.2650000  56.0000000  75.3690000  51.9610000  61.1540000
  75.9050000  52.5550000  60.6280000  75.3850000  52.3380000  62.0340000
  88.9150000  33.7920000  81.5440000  89.0000000  34.7430000  81.6090000
  88.9950000  33.6070000  80.6080000  57.1000000  54.4990000  88.8810000
  57.3490000  54.0970000  88.0490000  57.9250000  54.5930000  89.3590000
  84.6770000  78.9120000  58.9700000  85.4800000  79.4300000  58.9120000
  84.8980000  78.1920000  59.5600000  63.8420000  39.4440000  68.2940000
  63.1090000  39.2180000  67.7220000  63.5130000  40.1640000  68.8320000
  74.7710000  70.6150000  56.1040000  73.9440000  71.0890000  56.0180000
  75.4450000  71.2880000  56.0000000  70.4360000  31.0590000  63.0760000
  69.5060000  31.0570000  62.8500000  70.8870000  31.0000000  62.2330000
  36.6970000  78.8640000  92.9290000  36.5720000  77.9170000  92.9840000
  36.8060000  79.0380000  91.9930000  81.7150000  81.4620000  89.0760000
  81.5550000  80.5190000  89.1080000  80.8420000  81.8540000  89.0620000
  31.4320000  49.1580000  58.8640000  31.0000000  49.4970000  59.6480000
  31.0000000  48.3210000  58.6940000  80.0820000  72.2460000  63.6260000
  80.6840000  71.9460000  64.3070000  80.2740000  73.1790000  63.5310000
  57.9180000  88.3260000  62.9900000  58.7710000  88.7590000  63.0210000
  57.2970000  89.0000000  63.2690000  65.7220000  36.7390000  96.4340000
  66.1670000  37.5830000  96.5000000  65.5930000  36.6090000  95.4940000
  75.3810000  76.0180000  56.2310000  74.6830000  76.6620000  56.3500000
  74.9230000  75.2030000  56.0220000  43.8920000  41.6390000  96.1360000
  42.9900000  41.8370000  95.8860000  44.3530000  41.5290000  95.3040000
  82.4310000  59.6180000  90.3360000  81.5740000  59.3070000  90.6260000
  82.5720000  59.1850000  89.4940000  34.7110000  78.7050000  75.7990000
  34.5310000  78.2570000  76.6250000  35.3350000  78.1350000  75.3480000
  47.9880000  42.9750000  68.0010000  47.1860000  42.5570000  68.3130000
  47.7090000  43.4970000  67.2480000  33.3560000  52.6470000  83.1580000
  32.5110000  52.3900000  82.7880000  33.2490000  53.5730000  83.3800000
  63.8820000  88.7480000  71.6300000  63.9380000  89.0000000  70.7090000
  64.0430000  87.8040000  71.6310000  31.0000000  86.3030000  87.8090000
  31.0290000  86.8510000  88.5930000  31.0990000  86.9180000  87.0820000
  62.7070000  79.2610000  87.2570000  62.7530000  78.8160000  86.4110000
  63.5130000  79.7750000  87.3020000  48.4870000  48.8940000  96.4370000
  49.0960000  49.6290000  96.5000000  49.0500000  48.1220000  96.3650000
  67.9840000  46.9200000  83.1460000  67.4660000  46.2000000  83.5060000
  67.7730000  47.6700000  83.7030000  37.8380000  46.3360000  74.1630000
  38.5460000  46.7240000  74.6760000  38.2800000  45.9070000  73.4290000
  42.5230000  48.2330000  71.0720000  43.0600000  47.7890000  70.4160000
  41.6840000  48.3810000  70.6350000  58.5280000  61.3930000  66.3330000
  58.5080000  60.5390000  65.9030000  57.6130000  61.6770000  66.3460000
  62.1570000  88.4390000  58.2790000  62.4410000  89.0000000  57.5580000
  61.4870000  88.9510000  58.7320000  35.6240000  56.0010000  82.1750000
  35.6190000  56.8270000  82.6590000  35.8120000  55.3360000  82.8370000
  84.8670000  50.5180000  70.9370000  84.3340000  51.2330000  70.5900000
  84.2420000  49.8110000  71.1020000  51.9370000  49.1540000  95.8330000
  51.1740000  48.9120000  95.3090000  51.5930000  49.7500000  96.4980000
  45.1170000  67.6080000  93.5960000  44.6580000  67.0200000  94.1960000
  45.7450000  67.0450000  93.1430000  31.5190000  74.5050000  90.2380000
  31.0140000  75.3150000  90.1680000  31.0000000  73.9470000  90.8180000
  64.8520000  54.0800000  80.5110000  64.7840000  53.3490000  79.8970000
  65.7920000  54.2500000  80.5770000  43.0510000  63.6780000  58.0690000
  42.9310000  64.5060000  57.6030000  43.6420000  63.8930000  58.7910000
  63.2000000  64.4620000  72.7790000  62.9020000  63.7160000  73.2990000
  62.3940000  64.8960000  72.4980000  67.1340000  64.1950000  56.0000000
  67.0380000  63.4700000  56.6170000  67.1660000  64.9770000  56.5520000
  62.9390000  57.0870000  60.7280000  62.4070000  56.5850000  60.1100000
  62.7570000  56.6900000  61.5800000  46.1060000  75.3650000  65.3420000
  46.5350000  76.2180000  65.4150000  46.8240000  74.7320000  65.3750000
  47.6420000  77.2750000  94.5200000  47.7550000  78.2180000  94.4020000
  48.3530000  77.0190000  95.1080000  31.0000000  83.2520000  90.4900000
  31.9190000  83.4740000  90.6390000  31.0020000  82.3050000  90.3470000
  51.8350000  61.4800000  71.8670000  51.5460000  61.9080000  71.0600000
  52.5270000  60.8810000  71.5860000  45.1000000  75.3250000  79.5450000
  44.3260000  74.7660000  79.6040000  45.7850000  74.8350000  80.0010000
  86.0150000  39.1630000  73.7730000  86.7300000  38.5900000  74.0480000
  85.2440000  38.8200000  74.2250000  59.0320000  39.8970000  64.8840000
  58.1990000  40.3640000  64.8120000  58.7840000  38.9790000  64.9950000
  67.5920000  43.4470000  84.9020000  67.3910000  42.5230000  85.0450000
  66.7410000  43.8850000  84.9290000  39.0220000  73.9550000  88.4350000
  38.3120000  74.3440000  88.9430000  39.3580000  74.6750000  87.9000000
  64.1000000  89.0000000  90.7880000  63.1520000  88.9020000  90.8680000
  64.4190000  88.9950000  91.6910000  85.7570000  74.2770000  93.0240000
  86.0620000  73.8480000  93.8240000  85.3120000  73.5840000  92.5350000
  76.3560000  85.8180000  79.3110000  77.1130000  86.1410000  78.8220000
  75.5990000  86.1480000  78.8270000  76.5080000  78.6170000  68.1070000
  77.2360000  78.0570000  68.3750000  76.0520000  78.1130000  67.4330000
  86.7560000  73.7370000  89.5070000  87.1740000  73.0150000  89.0400000
  86.5330000  73.3720000  90.3640000  85.0570000  40.9650000  56.5150000
  84.3510000  40.5750000  56.0000000  85.8480000  40.8030000  56.0000000
  36.9120000  35.7260000  86.9290000  36.4960000  36.1620000  86.1850000
  36.3270000  34.9980000  87.1380000  70.3470000  87.8000000  56.0030000
  70.2840000  88.7550000  56.0080000  71.2870000  87.6210000  56.0000000
  39.9790000  37.5140000  60.7510000  39.2350000  36.9120000  60.7820000
  39.6480000  38.3240000  61.1410000  45.2650000  36.5050000  61.8170000
  44.6310000  37.1830000  61.5850000  46.0830000  36.7940000  61.4120000
  39.9450000  56.4300000  73.7180000  39.2440000  56.8740000  73.2410000
  40.6500000  56.3370000  73.0760000  60.6240000  52.1660000  72.1630000
  61.1030000  52.9560000  72.4140000  60.9000000  51.9940000  71.2630000
  82.0040000  32.2750000  72.2460000  82.3780000  31.5330000  71.7710000
  81.7600000  32.9000000  71.5630000  68.8290000  31.1140000  77.3490000
  69.2090000  31.0330000  78.2240000  69.5700000  31.0030000  76.7540000
  69.9310000  79.1310000  95.9850000  70.0650000  78.3350000  96.4990000
  70.3470000  79.8220000  96.5000000  79.4640000  84.1000000  86.2570000
  80.1800000  84.6230000  86.6170000  78.9100000  83.8990000  87.0120000
  42.9750000  36.4600000  89.9310000  43.0470000  35.9920000  90.7630000
  42.4190000  35.9000000  89.3880000  36.3930000  56.7690000  77.6460000
  35.7570000  57.4820000  77.6870000  37.2440000  57.2070000  77.6180000
  66.0540000  34.8770000  69.5290000  65.6700000  34.5180000  70.3300000
  65.9910000  34.1640000  68.8930000  48.5250000  67.8490000  63.8800000
  48.7650000  67.7990000  64.8050000  48.5120000  68.7870000  63.6850000
  59.8370000  68.5180000  89.8470000  60.0530000  69.3960000  89.5360000
  58.9870000  68.6170000  90.2780000  83.7550000  48.9170000  64.7260000
  83.7820000  49.8690000  64.8220000  84.5190000  48.7080000  64.1870000
  71.5660000  42.5130000  89.5990000  70.9190000  42.2100000  90.2360000
  71.3010000  42.1050000  88.7740000  34.1060000  36.0590000  74.1700000
  33.5010000  36.2760000  74.8790000  34.1240000  36.8430000  73.6210000
  54.9350000  64.2310000  60.8650000  54.0330000  64.3870000  60.5840000
  54.9170000  63.3590000  61.2600000  72.3460000  55.3320000  87.3760000
  73.0370000  55.7280000  86.8450000  71.5320000  55.6550000  86.9880000
  56.6150000  88.3860000  77.5140000  57.3790000  88.9410000  77.3620000
  55.8680000  88.9810000  77.4470000  85.8080000  55.9740000  60.9120000
  86.1850000  56.0530000  60.0360000  85.0410000  56.5470000  60.8960000
  41.4190000  46.1150000  95.7100000  40.7350000  45.9960000  95.0520000
  41.2140000  45.4710000  96.3890000  55.8790000  68.6850000  56.9520000
  55.5820000  68.8580000  56.0590000  55.0910000  68.7760000  57.4890000
  40.1020000  77.3310000  77.4120000  40.1400000  78.1210000  76.8730000
  39.1670000  77.1480000  77.5030000  64.7770000  85.4150000  71.6720000
  64.4660000  84.5100000  71.6690000  64.9020000  85.6290000  70.7480000
  55.1040000  74.4560000  82.3420000  55.6990000  75.1880000  82.1840000
  55.6790000  73.6990000  82.4530000  35.0690000  60.5430000  56.0000000
  34.1220000  60.4190000  56.0570000  35.4290000  59.6560000  56.0200000
  72.8890000  46.9490000  74.9040000  72.5210000  47.6640000  74.3840000
  73.4540000  46.4740000  74.2940000  86.0000000  82.4170000  60.1570000
  86.6240000  81.6920000  60.1930000  86.5410000  83.1920000  60.0060000
  50.3850000  37.3180000  69.5540000  50.7530000  36.5130000  69.9170000
  49.7350000  37.0180000  68.9170000  45.9980000  59.3690000  61.0570000
  46.5020000  58.5600000  60.9630000  46.6430000  60.0230000  61.3260000
  47.0610000  32.2670000  62.0660000  47.9010000  31.9300000  62.3780000
  46.4800000  31.5060000  62.0720000  36.2860000  33.5640000  64.3290000
  35.3480000  33.4970000  64.5090000  36.3610000  33.4100000  63.3870000
  51.9110000  52.1330000  81.2900000  52.2670000  52.3800000  82.1440000
  51.6970000  52.9660000  80.8690000  42.0950000  53.7080000  60.7650000
  41.6370000  53.2280000  61.4550000  41.4760000  53.7250000  60.0340000
  75.1340000  59.4580000  65.1020000  75.0050000  58.5930000  65.4900000
  74.3530000  59.9520000  65.3530000  75.4120000  81.9790000  74.7910000
  74.4770000  81.8840000  74.6100000  75.5230000  82.9080000  74.9950000
  33.6910000  78.5810000  72.9200000  33.2900000  78.1870000  73.6940000
  34.2800000  79.2510000  73.2690000  60.1950000  57.8730000  67.8410000
  60.5150000  58.5440000  67.2380000  60.5780000  58.1080000  68.6860000
  73.1290000  32.8500000  88.8090000  73.1460000  33.2910000  89.6580000
  73.2470000  31.9230000  89.0180000  64.2360000  60.5230000  58.9900000
  64.0920000  61.1640000  58.2950000  63.5730000  60.7310000  59.6490000
  50.5490000  85.8490000  77.2990000  50.7410000  85.4810000  78.1610000
  50.0310000  86.6330000  77.4830000  33.6260000  67.5150000  60.3190000
  33.8270000  68.4170000  60.0730000  34.4300000  67.1930000  60.7290000
  63.9260000  80.3630000  68.5520000  63.8560000  80.0710000  67.6430000
  64.5070000  81.1220000  68.5160000  82.5810000  66.9990000  82.4920000
  81.9370000  66.9320000  81.7880000  82.2900000  67.7480000  83.0140000
  85.3170000  82.4530000  70.5770000  85.3150000  81.7960000  69.8820000
  86.2120000  82.4390000  70.9180000  85.1070000  64.1620000  88.0880000
  85.7050000  63.7590000  88.7170000  85.6100000  64.8820000  87.7060000
  73.8630000  83.2520000  89.8380000  74.8150000  83.1720000  89.8950000
  73.7050000  84.1940000  89.7730000  33.3940000  44.1690000  95.8230000
  33.0710000  44.4650000  94.9730000  32.9130000  44.6970000  96.4610000
  42.8720000  57.4440000  74.4340000  43.3660000  57.6460000  75.2290000
  42.2660000  58.1780000  74.3350000  69.2170000  73.8910000  58.6850000
  68.6710000  74.3950000  59.2890000  68.7480000  73.0630000  58.5720000
  55.1510000  40.5590000  91.4640000  54.5780000  40.1290000  90.8290000
  55.0650000  40.0320000  92.2590000  52.2580000  75.2550000  93.1500000
  52.4550000  74.4470000  92.6760000  52.8810000  75.2650000  93.8770000
  34.2540000  57.8420000  58.1320000  35.2070000  57.8960000  58.0670000
  33.9620000  58.7540000  58.1430000  67.7480000  49.5870000  63.4860000
  66.8970000  50.0170000  63.4050000  68.3850000  50.2930000  63.3730000
  68.0010000  86.4590000  65.6650000  68.4870000  86.8890000  66.3680000
  68.6440000  86.3410000  64.9660000  88.3900000  52.1210000  56.6210000
  87.7590000  52.5860000  56.0720000  88.9980000  51.7190000  56.0010000
  65.0500000  53.9440000  66.3610000  65.0580000  54.0110000  67.3160000
  65.0090000  54.8510000  66.0570000  60.9460000  38.6780000  66.3700000
  61.2920000  39.0830000  65.5750000  60.7460000  37.7770000  66.1130000
  31.0000000  34.0790000  93.5960000  31.1220000  33.6440000  92.7520000
  31.0000000  33.3660000  94.2350000  40.7580000  82.8280000  74.6940000
  40.5920000  83.5470000  75.3030000  41.1150000  83.2510000  73.9130000
  55.1670000  53.8380000  81.6160000  55.4120000  52.9170000  81.6960000
  55.9150000  54.3170000  81.9740000  61.9860000  58.4830000  87.4030000
  61.0980000  58.6760000  87.1040000  62.4030000  59.3410000  87.4870000
  69.1580000  73.7470000  90.2070000  69.0260000  73.0840000  89.5300000
  68.7250000  73.3870000  90.9820000  69.3660000  75.6480000  80.0480000
  68.6810000  75.9900000  79.4750000  69.5130000  76.3450000  80.6880000
  89.0000000  85.0300000  80.8320000  89.0000000  85.8800000  81.2710000
  88.9070000  84.3930000  81.5410000  44.6550000  75.6570000  90.5660000
  44.1990000  74.8150000  90.5600000  45.3000000  75.5860000  89.8610000
  40.2920000  68.9880000  89.7510000  41.0010000  69.4480000  89.3010000
  40.5990000  68.0830000  89.8200000  88.0600000  41.1740000  82.2080000
  89.0000000  41.3400000  82.1460000  87.9890000  40.2220000  82.2880000
  79.8800000  83.5100000  62.8590000  80.5690000  83.9860000  63.3220000
  79.4950000  84.1580000  62.2690000  78.8800000  54.6220000  77.2860000
  78.2830000  55.3700000  77.3020000  78.3520000  53.9000000  76.9450000
  40.0730000  31.0920000  70.8780000  39.1450000  31.0000000  70.6640000
  40.1060000  31.0400000  71.8340000  75.5460000  49.0800000  81.4650000
  75.9480000  49.7430000  82.0250000  75.1720000  49.5750000  80.7360000
  64.6870000  78.3060000  72.2390000  64.5100000  78.8290000  71.4560000
  64.0240000  78.5880000  72.8700000  81.4770000  70.5820000  71.8960000
  81.5750000  70.8290000  72.8150000  81.2380000  71.3960000  71.4520000
  69.0320000  38.4390000  96.4600000  68.8040000  37.5100000  96.5000000
  69.1880000  38.6080000  95.5310000  59.0590000  75.1330000  62.7160000
  58.8590000  75.9130000  62.1990000  58.2220000  74.6740000  62.7920000
  53.0670000  88.9270000  89.4510000  54.0210000  89.0000000  89.4390000
  52.8160000  88.9090000  88.5270000  33.3180000  78.2170000  83.2550000
  32.9180000  78.5840000  84.0440000  33.0350000  77.3030000  83.2470000
  86.6760000  36.1430000  82.9850000  86.8610000  35.2200000  82.8130000
  85.7430000  36.1650000  83.1960000  83.9350000  51.0050000  79.7710000
  83.0660000  50.8130000  79.4200000  83.9610000  51.9590000  79.8410000
  75.8010000  40.8540000  65.9890000  76.2170000  41.7100000  65.8920000
  76.4040000  40.2440000  65.5650000  73.0070000  82.8450000  65.4250000
  72.3260000  82.8790000  64.7530000  72.5550000  83.0830000  66.2360000
  57.4700000  48.8270000  93.5880000  56.8600000  48.6960000  94.3130000
  57.5070000  47.9770000  93.1490000  61.0050000  35.6610000  73.0700000
  60.3740000  36.0640000  73.6670000  61.3010000  36.3810000  72.5130000
  88.9610000  66.2480000  79.2510000  89.0000000  65.9930000  78.3290000
  88.2410000  65.7320000  79.6130000  68.4060000  47.6310000  95.5180000
  68.4400000  47.4170000  96.4500000  69.0310000  47.0310000  95.1110000
  44.5410000  61.0090000  76.1040000  43.9730000  61.7630000  75.9470000
  43.9380000  60.2800000  76.2520000  50.7990000  38.5680000  75.9280000
  49.9580000  38.3490000  75.5270000  50.5680000  38.9840000  76.7590000
  65.3430000  73.0300000  62.9200000  65.9670000  72.3230000  62.7570000
  65.8880000  73.7830000  63.1510000  31.5440000  34.5480000  69.9080000
  31.0000000  34.9330000  70.5950000  31.0220000  33.8200000  69.5700000
  76.0310000  40.4650000  73.8340000  76.5600000  39.7190000  73.5550000
  76.4140000  40.7330000  74.6690000  34.0880000  40.0160000  66.5810000
  34.9790000  40.3040000  66.3820000  34.2020000  39.1850000  67.0430000
  78.9880000  40.3550000  88.6210000  78.5100000  39.5270000  88.6340000
  78.4130000  40.9570000  88.1480000  45.5720000  64.8740000  56.6730000
  44.8930000  64.9250000  56.0000000  46.3570000  65.2220000  56.2490000
  64.0130000  31.5700000  81.4860000  63.4020000  31.0000000  81.0200000
  64.3420000  31.0320000  82.2060000  72.8930000  49.6530000  76.8470000
  73.2130000  50.5230000  77.0840000  73.0370000  49.5930000  75.9020000
  63.4330000  64.5190000  91.0110000  64.2280000  64.5810000  90.4830000
  63.3880000  63.5980000  91.2710000  57.6760000  33.7510000  68.5760000
  57.9590000  34.6450000  68.3810000  58.1970000  33.4950000  69.3380000
  52.7970000  74.3380000  67.3120000  53.5900000  74.8610000  67.4230000
  53.0940000  73.5420000  66.8710000  64.2520000  34.5650000  87.9910000
  65.0270000  34.0190000  87.8590000  64.3810000  35.3110000  87.4050000
  72.7550000  88.1920000  94.9150000  72.0840000  88.7850000  95.2530000
  72.2720000  87.4070000  94.6550000  32.0570000  33.5830000  63.2530000
  32.5070000  33.2910000  64.0460000  31.1280000  33.4490000  63.4410000
  79.5200000  61.7200000 141.9860000  79.3330000  62.1740000 142.8080000
  80.4700000  61.7880000 141.8850000  43.3130000  37.1530000 164.0000000
  43.8710000  37.9300000 163.9710000  42.4350000  37.4810000 163.8040000
  39.5090000  71.1530000 151.1210000  39.3680000  71.5600000 151.9760000
  40.4050000  70.8170000 151.1600000  75.1270000  37.8940000 153.5220000
  74.7270000  37.0770000 153.8210000  76.0250000  37.8560000 153.8520000
  85.2260000  36.4870000 147.5440000  85.6200000  36.3830000 146.6780000
  85.9560000  36.3810000 148.1550000  39.0010000  55.7700000 163.9920000
  38.5550000  56.6170000 163.9880000  38.2920000  55.1260000 164.0000000
  82.8300000  67.1310000 126.4210000  83.0000000  67.8260000 127.0570000
  82.0640000  66.6720000 126.7660000  67.5490000  37.0920000 163.9460000
  66.6660000  37.4570000 164.0000000  68.1050000  37.8400000 163.7280000
  78.6980000  70.0070000 136.5190000  78.6120000  69.7500000 137.4370000
  78.0420000  70.6940000 136.4000000  58.3880000  74.5840000 128.2420000
  57.4440000  74.7340000 128.2710000  58.4870000  73.6440000 128.3950000
  45.0050000  88.9910000 134.6580000  45.5700000  89.0000000 133.8850000
  45.5510000  88.6170000 135.3500000  44.6030000  70.6070000 157.0010000
  45.2390000  69.9850000 156.6510000  44.7660000  70.6110000 157.9450000
  82.3220000  42.8750000 129.5150000  81.5380000  42.3280000 129.4790000
  83.0460000  42.2520000 129.5840000  31.5900000  70.7010000 163.6770000
  31.0380000  69.9890000 164.0000000  31.0000000  71.4520000 163.6120000
  70.8470000  43.5590000 137.7920000  71.4550000  42.8390000 137.6260000
  71.3800000  44.3490000 137.6980000  80.5690000  74.0290000 125.8650000
  80.8580000  73.1160000 125.8650000  79.6130000  73.9770000 125.8640000
  35.2410000  54.2800000 139.0600000  34.9940000  55.2050000 139.0690000
  35.5760000  54.1300000 138.1760000  85.7780000  88.9300000 124.3930000
  85.0040000  89.0000000 124.9510000  85.4370000  88.9890000 123.5000000
  34.5900000  54.8580000 123.7050000  33.8770000  54.2540000 123.5000000
  35.3720000  54.3060000 123.7290000  65.4390000  63.2510000 160.7560000
  65.6340000  63.4480000 161.6720000  66.0780000  63.7630000 160.2600000
  82.8350000  49.0440000 153.9260000  82.0030000  49.2730000 153.5120000
  83.4940000  49.5200000 153.4200000  58.4740000  46.5740000 141.2690000
  58.4830000  46.3410000 142.1970000  58.0010000  47.4050000 141.2340000
  71.7440000  63.4360000 133.6220000  71.3000000  64.0040000 132.9930000
  71.3080000  62.5880000 133.5290000  63.5580000  47.5520000 141.7570000
  64.3230000  48.1200000 141.8390000  62.8240000  48.0930000 142.0480000
  54.8190000  40.2510000 157.3740000  54.2460000  41.0170000 157.3840000
  55.4880000  40.4600000 156.7210000  54.3950000  54.9310000 141.1180000
  54.5050000  55.6480000 141.7420000  54.6740000  55.2990000 140.2790000
  88.4110000  71.8430000 152.7970000  88.9940000  71.2070000 152.3820000
  88.9910000  72.5470000 153.0860000  45.6010000  40.4130000 163.9900000
  45.4130000  41.3500000 163.9280000  46.5570000  40.3600000 164.0000000
  83.4370000  59.2460000 153.8220000  82.5000000  59.2770000 154.0110000
  83.6090000  60.0490000 153.3300000  81.2470000  41.2100000 149.8620000
  80.8900000  40.3220000 149.8280000  80.5580000  41.7600000 149.4880000
  60.4170000  36.4740000 140.6870000  59.8830000  35.7160000 140.9230000
  60.3220000  37.0740000 141.4270000  78.9100000  89.0000000 129.0360000
  77.9700000  88.8280000 128.9870000  79.2110000  88.9560000 128.1280000
  44.6360000  68.1290000 158.2130000  45.1380000  67.8480000 158.9780000
  45.0080000  67.6320000 157.4850000  47.7680000  31.1190000 149.4820000
  47.0790000  31.0000000 150.1350000  48.5840000  31.0030000 149.9690000
  83.5960000  37.9180000 137.7180000  82.7980000  37.8800000 138.2450000
  84.1930000  37.2990000 138.1400000  42.7100000  52.3420000 161.4940000
  42.3310000  52.5510000 160.6410000  42.7130000  51.3850000 161.5270000
  61.9440000  48.1490000 159.6570000  61.7030000  48.2980000 158.7430000
  62.8670000  47.8950000 159.6230000  72.2070000  40.7740000 126.4630000
  71.3650000  40.5590000 126.0620000  72.7010000  39.9540000 126.4380000
  60.3520000  51.7530000 126.6320000  61.0050000  52.4510000 126.6770000
  60.6200000  51.2230000 125.8810000  45.8110000  64.6380000 129.2430000
  45.9120000  63.6900000 129.3350000  46.4510000  64.8840000 128.5740000
  40.2130000  77.1230000 157.0480000  39.4420000  77.1170000 157.6150000
  39.8600000  77.0330000 156.1630000  84.2990000  31.4640000 126.7010000
  84.2830000  31.0000000 127.5380000  83.3870000  31.4660000 126.4110000
  59.0110000  78.5180000 123.5000000  58.5360000  77.8950000 124.0500000
  58.7230000  79.3780000 123.8080000  56.0760000  65.2010000 163.9690000
  55.3340000  64.5980000 164.0000000  56.3400000  65.2100000 163.0490000
  36.6800000  31.2030000 151.1510000  37.3830000  31.0000000 150.5330000
  36.8750000  32.0900000 151.4530000  53.0970000  32.1650000 153.2680000
  52.7360000  32.5020000 154.0870000  52.8220000  31.2480000 153.2430000
  88.4270000  72.0770000 146.9810000  89.0000000  72.2000000 146.2240000
  88.9960000  72.2170000 147.7380000  63.4000000  37.3420000 149.1190000
  64.2680000  37.3060000 148.7170000  63.3160000  36.5090000 149.5830000
  31.8510000  86.1110000 134.6220000  31.0160000  86.4360000 134.2860000
  31.9870000  85.2800000 134.1650000  44.4260000  88.3950000 123.5000000
  43.6970000  89.0000000 123.6340000  44.1010000  87.5530000 123.8190000
  65.4730000  51.7900000 152.4520000  65.1030000  52.6340000 152.7130000
  64.7330000  51.3060000 152.0850000  64.7260000  84.3700000 139.5530000
  64.8520000  84.3320000 138.6050000  65.0460000  83.5260000 139.8720000
  43.3580000  68.2400000 155.1870000  44.2830000  68.3830000 154.9870000
  43.1180000  68.9770000 155.7500000  88.4160000  61.2050000 163.9230000
  88.9990000  60.4470000 163.9440000  89.0000000  61.9600000 164.0000000
  65.1880000  85.4330000 154.2110000  65.5220000  86.3220000 154.0920000
  64.2750000  85.5540000 154.4730000  88.4570000  77.3860000 154.3950000
  89.0000000  76.8490000 154.9710000  89.0000000  77.5300000 153.6200000
  55.2550000  81.4110000 134.1340000  55.3110000  81.4550000 133.1800000
  54.9270000  80.5290000 134.3140000  49.2660000  65.5890000 123.6200000
  48.4360000  65.1160000 123.5860000  49.9350000  64.9050000 123.5770000
  86.6300000  84.3210000 142.4680000  85.7190000  84.5730000 142.3150000
  87.0960000  85.1520000 142.5640000  77.7560000  57.9020000 157.4090000
  77.1030000  58.5780000 157.2270000  78.5810000  58.3810000 157.4910000
  75.3180000  56.8040000 158.9620000  74.4410000  56.4680000 158.7750000
  75.8520000  56.5030000 158.2260000  40.7130000  57.0260000 159.0090000
  40.9240000  57.3940000 159.8660000  41.4820000  57.2140000 158.4710000
  36.1150000  36.6790000 123.5000000  37.0480000  36.4670000 123.5000000
  36.0860000  37.6370000 123.5000000  87.1780000  41.3180000 133.9850000
  87.8600000  41.1900000 134.6440000  87.5350000  40.9210000 133.1900000
  83.0160000  44.3160000 139.5430000  83.7650000  44.7750000 139.9230000
  82.3430000  44.3490000 140.2240000  83.4820000  55.1360000 161.8340000
  84.2360000  55.1310000 162.4240000  83.0980000  54.2640000 161.9280000
  51.2510000  57.5100000 147.9630000  51.0810000  57.7540000 148.8720000
  51.6390000  58.2930000 147.5720000  73.9980000  37.3840000 123.5010000
  73.0810000  37.6090000 123.6570000  74.0920000  36.5000000 123.8560000
  87.5390000  31.3850000 126.8670000  86.7470000  31.0000000 126.4930000
  87.2260000  32.1340000 127.3740000  47.4830000  77.5230000 132.4380000
  46.5980000  77.8870000 132.4480000  47.8000000  77.6900000 131.5500000
  65.4630000  77.7820000 133.6960000  65.9010000  77.0940000 133.1960000
  64.5360000  77.5440000 133.6700000  76.2990000  64.5030000 149.5900000
  75.5530000  64.1270000 149.1240000  76.9140000  63.7760000 149.6860000
  55.0840000  42.5440000 132.9480000  55.6060000  42.5530000 132.1460000
  55.7300000  42.5630000 133.6540000  88.4200000  58.4400000 158.5840000
  88.9990000  57.8060000 159.0060000  89.0000000  58.9680000 158.0360000
  58.0640000  60.6970000 142.6270000  58.0080000  59.8100000 142.9840000
  58.1170000  60.5710000 141.6800000  89.0000000  38.9010000 137.3460000
  88.3170000  38.2300000 137.3730000  88.5210000  39.7290000 137.3010000
  84.4100000  88.0720000 150.0320000  84.3060000  87.2170000 150.4490000
  83.6200000  88.5550000 150.2750000  68.1330000  43.7390000 137.3210000
  68.6830000  44.3270000 136.8040000  67.6890000  44.3140000 137.9450000
  31.0960000  40.4980000 139.6840000  31.9390000  40.3010000 139.2780000
  31.0000000  39.8380000 140.3720000  58.0230000  45.0440000 159.2690000
  57.3760000  45.4400000 158.6850000  58.4490000  45.7880000 159.6950000
  76.4880000  77.6610000 150.9740000  76.5680000  77.5340000 151.9190000
  75.5620000  77.8620000 150.8370000  57.2250000  41.8180000 136.1190000
  57.0660000  42.6920000 135.7640000  56.7110000  41.7900000 136.9270000
  84.5920000  88.2890000 154.8520000  84.9010000  87.4900000 154.4260000
  85.3920000  88.7520000 155.1040000  62.5680000  61.5210000 140.7340000
  63.4650000  61.3170000 140.4690000  62.3070000  60.7830000 141.2860000
  60.1700000  53.1360000 138.9980000  60.2520000  53.9620000 138.5210000
  59.4010000  53.2570000 139.5550000  63.2260000  75.3860000 131.9100000
  63.4900000  76.2460000 131.5820000  63.9120000  75.1470000 132.5340000
  56.6790000  58.3770000 132.4510000  56.6980000  59.3320000 132.3940000
  55.8980000  58.1230000 131.9590000  43.9650000  41.2890000 134.9660000
  43.3240000  41.6430000 135.5810000  43.9830000  40.3500000 135.1520000
  56.4820000  54.6960000 144.3800000  55.7450000  54.9250000 143.8140000
  56.0920000  54.1790000 145.0850000  64.8010000  87.9360000 138.6950000
  64.0120000  88.4010000 138.9730000  64.7860000  87.9880000 137.7390000
  40.9650000  40.4360000 124.0300000  41.8130000  40.8290000 123.8270000
  41.1600000  39.5110000 124.1840000  72.0880000  71.4080000 123.7090000
  71.6770000  72.2470000 123.5000000  73.0150000  71.5390000 123.5090000
  49.0090000  56.1050000 148.1840000  49.2640000  55.2300000 148.4750000
  48.5740000  55.9610000 147.3430000  65.3470000  57.6830000 125.4150000
  65.5250000  56.7640000 125.6140000  64.4870000  57.6760000 124.9950000
  65.9220000  76.4170000 130.7630000  65.7940000  76.2170000 129.8370000
  66.6440000  77.0470000 130.7750000  47.7790000  58.2360000 145.1130000
  46.8920000  58.5260000 144.9030000  47.7220000  57.9270000 146.0180000
  77.5130000  77.6870000 155.9350000  76.8750000  77.1280000 156.3780000
  78.3640000  77.3540000 156.2210000  45.4050000  69.5610000 145.9440000
  45.3630000  70.0520000 145.1230000  46.3170000  69.6420000 146.2240000
  46.8290000  32.0470000 163.9690000  46.0030000  32.5300000 163.9770000
  47.5040000  32.7260000 164.0000000  48.2500000  88.3940000 142.9130000
  48.4420000  88.7110000 143.7960000  48.7130000  89.0000000 142.3350000
  81.7090000  53.2980000 144.1610000  81.4640000  53.7930000 143.3800000
  80.9230000  52.7980000 144.3850000  31.4420000  69.7190000 146.5840000
  31.0000000  68.8700000 146.5880000  31.0130000  70.2160000 147.2810000
  37.6240000  78.9250000 163.9360000  38.1490000  78.1280000 164.0000000
  36.7820000  78.6300000 163.5880000  61.9360000  57.7340000 142.0270000
  62.4530000  57.0160000 141.6620000  62.5170000  58.1460000 142.6680000
  31.8200000  82.9560000 123.5000000  31.0050000  82.4530000 123.5000000
  32.5110000  82.2940000 123.5010000  54.5520000  58.2620000 141.5540000
  54.4410000  59.0910000 141.0890000  55.2980000  58.4120000 142.1360000
  60.1210000  80.7690000 152.0810000  60.7470000  81.4370000 151.8010000
  59.5730000  81.2110000 152.7300000  45.8960000  88.9980000 160.1840000
  44.9590000  89.0000000 160.3800000  46.0950000  88.0860000 159.9740000
  36.1070000  48.1200000 125.7420000  36.6990000  48.7660000 126.1270000
  36.6860000  47.4930000 125.3070000  52.5100000  57.8740000 136.2850000
  53.3930000  57.7660000 135.9340000  52.5740000  57.5760000 137.1930000
  58.0290000  80.4740000 155.6750000  57.6620000  80.0180000 156.4330000
  57.7510000  79.9500000 154.9230000  31.3530000  31.0000000 137.3270000
  31.0000000  31.7990000 136.9380000  31.0810000  31.0380000 138.2440000
  87.9460000  37.5790000 131.4220000  88.5880000  38.2870000 131.4620000
  87.1020000  38.0240000 131.3470000  83.2560000  77.3200000 156.0430000
  83.7350000  78.1450000 155.9660000  82.9770000  77.1210000 155.1490000
  89.0000000  68.3290000 154.1830000  88.9860000  69.2580000 153.9570000
  88.9040000  68.3130000 155.1360000  64.2860000  58.2980000 159.6080000
  63.8040000  58.4690000 158.7980000  65.1660000  58.6350000 159.4390000
  87.4870000  58.7270000 123.5000000  87.2050000  57.8130000 123.5000000
  88.4440000  58.6830000 123.5000000  38.1160000  53.5400000 123.5120000
  38.9240000  53.0270000 123.5210000  37.4170000  52.8860000 123.5000000
  31.0860000  50.9680000 125.8300000  32.0150000  51.1180000 125.6580000
  31.0000000  50.0150000 125.8730000  63.0430000  84.8530000 123.5560000
  62.1410000  84.5360000 123.5180000  62.9650000  85.8060000 123.5000000
  79.3870000  87.8760000 125.2040000  80.1430000  87.3370000 124.9710000
  79.7590000  88.7320000 125.4170000  40.6400000  64.8100000 155.1130000
  40.1710000  64.1340000 155.6020000  40.6150000  65.5790000 155.6830000
  78.7870000  71.7100000 159.6060000  78.5880000  72.6350000 159.4640000
  79.6380000  71.7120000 160.0440000  37.6500000  76.3500000 142.1720000
  37.0180000  75.9760000 141.5580000  37.2320000  77.1510000 142.4880000
  57.6840000  65.3540000 157.8110000  57.1940000  65.5080000 158.6180000
  58.5680000  65.1320000 158.1050000  35.2200000  61.4000000 163.9910000
  34.6090000  62.1360000 163.9690000  36.0870000  61.8070000 163.9990000
  36.4890000  62.1900000 144.9950000  37.0230000  62.9080000 144.6550000
  35.5960000  62.5370000 145.0010000  78.7350000  67.9290000 147.8510000
  79.0350000  68.5500000 148.5150000  78.8340000  68.3980000 147.0220000
  37.9650000  58.9880000 156.8780000  37.6410000  59.7870000 156.4640000
  37.9660000  58.3370000 156.1760000  45.6720000  89.0000000 131.1890000
  45.7240000  88.0820000 131.4540000  45.8890000  88.9940000 130.2570000
  49.0410000  88.4060000 146.2040000  49.7380000  88.9940000 145.9150000
  48.2680000  88.9670000 146.2770000  58.1900000  50.9810000 153.3990000
  57.7370000  50.2450000 153.8110000  57.9290000  51.7430000 153.9170000
  56.7620000  88.9600000 135.8640000  57.7180000  89.0000000 135.8790000
  56.5430000  88.8020000 134.9460000  49.7930000  32.2300000 147.6780000
  50.6740000  32.2190000 147.3050000  49.5180000  31.3130000 147.6710000
  80.2940000  59.7850000 152.9500000  80.4020000  59.6140000 152.0140000
  79.6000000  60.4430000 152.9950000  85.8820000  67.5340000 144.2660000
  86.1960000  68.0550000 143.5280000  85.5150000  68.1760000 144.8750000
  86.9950000  61.1180000 151.0650000  87.0630000  60.2120000 150.7660000
  87.3170000  61.6390000 150.3290000  70.5140000  66.1860000 138.5220000
  70.0150000  65.4590000 138.8920000  70.6680000  65.9340000 137.6110000
  30.9990000  85.7760000 131.1760000  31.5530000  86.1490000 131.8610000
  31.5950000  85.6180000 130.4440000  71.8730000  40.4240000 137.1310000
  72.3980000  40.1460000 136.3800000  71.0970000  39.8650000 137.1010000
  63.0030000  88.4920000 149.8320000  63.5270000  88.1520000 150.5570000
  62.1950000  87.9790000 149.8580000  45.9720000  50.0540000 142.3980000
  46.8260000  50.4810000 142.4520000  45.9130000  49.5330000 143.2000000
  78.5580000  39.4650000 136.8310000  79.4150000  39.8770000 136.9440000
  78.3140000  39.1760000 137.7110000  72.1840000  75.8240000 138.9210000
  72.4480000  76.1490000 139.7810000  72.4650000  76.5060000 138.3100000
  66.6080000  72.5840000 151.0930000  67.2350000  71.8780000 150.9360000
  66.0840000  72.2790000 151.8340000  69.0380000  87.1520000 131.0510000
  68.1780000  87.0660000 130.6410000  69.5550000  86.4390000 130.6760000
  80.2590000  87.3110000 156.6630000  79.4780000  86.8870000 156.3070000
  79.9330000  87.8450000 157.3870000  61.4500000  68.0120000 128.8490000
  62.0050000  68.7850000 128.9500000  60.5650000  68.3630000 128.7530000
  44.7750000  35.0910000 139.6550000  45.4280000  35.3960000 140.2840000
  44.8220000  35.7210000 138.9350000  73.7280000  31.8430000 127.2580000
  74.4220000  31.2340000 127.0070000  73.9000000  32.6300000 126.7400000
  53.0370000  45.9980000 131.9900000  52.6700000  45.1910000 131.6280000
  52.6070000  46.0970000 132.8400000  73.3690000  49.5030000 129.4630000
  72.6770000  50.1630000 129.4230000  74.1770000  50.0070000 129.5630000
  47.2140000  66.2030000 142.2620000  46.6770000  66.9360000 142.5610000
  48.0270000  66.6090000 141.9600000  39.6260000  43.6030000 123.5510000
  40.4090000  44.1530000 123.5380000  39.9610000  42.7070000 123.5000000
  65.8950000  80.6640000 153.5250000  66.3460000  81.4950000 153.6740000
  66.5880000  80.0040000 153.5680000  31.5860000  34.1210000 158.6430000
  31.0000000  33.3680000 158.7110000  31.0000000  34.8780000 158.6080000
  65.5510000  80.0130000 151.1040000  65.0750000  79.9630000 150.2760000
  65.6350000  79.1020000 151.3890000  55.2110000  68.9130000 139.2890000
  54.4450000  69.4680000 139.4350000  54.8700000  68.0190000 139.3300000
  80.0660000  39.4980000 155.2070000  80.6190000  40.2750000 155.1370000
  80.6750000  38.7620000 155.1390000  75.7840000  79.6240000 153.0650000
  74.9520000  79.5250000 152.6040000  75.6370000  79.2130000 153.9170000
  82.3990000  55.7570000 164.0000000  81.7690000  56.4770000 164.0000000
  81.8590000  54.9660000 163.9990000  78.9640000  40.7040000 126.8340000
  79.3370000  40.4150000 126.0010000  78.9220000  39.9100000 127.3670000
  71.5380000  66.2940000 151.5120000  72.4860000  66.4260000 151.5240000
  71.4300000  65.3460000 151.4330000  66.9840000  41.8080000 163.6140000
  66.0700000  41.5560000 163.7470000  67.4880000  41.0910000 164.0000000
  52.7040000  80.4870000 137.3190000  51.8270000  80.2890000 137.6460000
  53.0710000  81.0900000 137.9660000  76.7440000  57.1100000 128.7280000
  76.0070000  56.9110000 128.1510000  77.4190000  56.4760000 128.4830000
  70.3060000  41.3030000 134.0640000  71.2010000  41.1990000 134.3880000
  70.3590000  42.0280000 133.4410000  41.8110000  56.4740000 143.8330000
  42.0000000  57.4120000 143.7930000  40.8570000  56.4190000 143.7630000
  84.1770000  78.3580000 129.8230000  84.4710000  78.6790000 128.9710000
  83.3490000  78.8120000 129.9790000  51.1280000  63.7750000 154.6660000
  50.3600000  64.3020000 154.4450000  51.3640000  63.3410000 153.8450000
  32.0540000  66.9700000 136.0920000  32.3170000  67.8880000 136.1520000
  32.8800000  66.4850000 136.0630000  79.7530000  57.9990000 150.2200000
  79.7750000  58.2220000 149.2890000  80.6430000  57.7050000 150.4170000
  61.4310000  68.2940000 134.0520000  61.5670000  69.1810000 134.3860000
  61.6850000  67.7230000 134.7780000  80.8510000  61.8420000 164.0000000
  81.7900000  62.0150000 163.9420000  80.4430000  62.7060000 163.9400000
  75.1630000  31.2720000 163.6280000  75.2860000  32.1670000 163.9420000
  74.3240000  31.0000000 164.0000000  59.0730000  58.9070000 157.1070000
  59.2730000  59.8320000 156.9670000  58.1170000  58.8690000 157.1310000
  39.5710000  33.9320000 135.6070000  39.1600000  33.2640000 136.1560000
  39.7410000  33.4880000 134.7760000  33.0610000  78.1260000 146.0470000
  33.4300000  78.1530000 145.1640000  33.5870000  78.7510000 146.5460000
  50.7560000  74.7320000 135.4530000  51.4810000  74.8460000 134.8380000
  51.1770000  74.6680000 136.3100000  64.9550000  45.8320000 155.9470000
  65.1370000  44.9650000 156.3080000  65.7570000  46.3310000 156.1040000
  48.5280000  81.4370000 163.0600000  47.8250000  81.3750000 162.4140000
  48.1150000  81.1910000 163.8880000  42.6140000  88.7000000 147.6250000
  41.7160000  89.0000000 147.4800000  42.8250000  88.9950000 148.5110000
  82.9320000  38.0330000 133.1920000  83.3790000  37.7300000 133.9820000
  82.0010000  37.9220000 133.3850000  86.2300000  53.2030000 157.8840000
  85.9490000  53.7220000 158.6380000  85.7740000  53.5950000 157.1390000
  85.9130000  33.8570000 148.9560000  86.2600000  33.6830000 148.0810000
  85.0160000  34.1570000 148.8020000  52.1580000  48.5200000 133.9920000
  51.3070000  48.7730000 133.6340000  52.7600000  48.5870000 133.2500000
  73.7550000  45.9330000 141.2350000  73.1770000  45.3070000 140.7990000
  74.6380000  45.6140000 141.0490000  83.4120000  51.1410000 155.6350000
  83.0870000  51.9260000 156.0760000  84.2190000  51.4240000 155.2050000
  71.8500000  58.9240000 134.6180000  71.9940000  58.9670000 135.5630000
  70.8980000  58.9550000 134.5180000  63.7920000  40.8170000 128.3180000
  63.6580000  39.8960000 128.5420000  63.0010000  41.0640000 127.8390000
  70.5390000  31.6440000 152.4670000  71.3380000  31.4850000 152.9690000
  69.9060000  31.0160000 152.8160000  54.8300000  33.7040000 133.7440000
  55.2320000  34.5160000 133.4380000  53.9190000  33.9390000 133.9220000
  88.8580000  31.9390000 152.7050000  89.0000000  31.0000000 152.8190000
  87.9110000  32.0520000 152.7920000  42.0440000  63.5200000 153.2910000
  41.7050000  62.6660000 153.0210000  42.6920000  63.3180000 153.9660000
  89.0000000  31.8950000 156.4550000  88.2830000  31.2620000 156.4290000
  88.9640000  32.3340000 155.6050000  60.9330000  37.9930000 163.7890000
  61.7420000  37.4940000 163.9000000  61.1760000  38.8950000 164.0000000
  64.6920000  47.2350000 146.4970000  65.3430000  47.1420000 145.8010000
  63.8880000  47.4840000 146.0410000  71.4760000  31.0000000 146.0370000
  71.0010000  31.7550000 145.6920000  71.5680000  31.1820000 146.9730000
  51.9450000  45.2050000 161.4880000  52.9000000  45.1780000 161.5460000
  51.7450000  46.1070000 161.2400000  52.2650000  54.8680000 136.9510000
  51.3410000  54.7340000 137.1640000  52.2530000  55.3080000 136.1000000
  41.2900000  35.4030000 126.3590000  41.9620000  34.7520000 126.5580000
  41.3450000  35.5230000 125.4110000  35.1450000  89.0000000 129.4670000
  35.4110000  88.1040000 129.6730000  34.4100000  88.8990000 128.8620000
  79.7300000  78.2550000 154.1910000  79.0630000  78.1470000 153.5130000
  80.1270000  77.3880000 154.2790000  85.7690000  38.3450000 133.5690000
  85.9870000  37.9120000 134.3940000  85.7480000  39.2780000 133.7860000
  80.8540000  43.3110000 151.8800000  81.7540000  43.1730000 152.1760000
  80.4610000  42.4390000 151.8920000  59.8840000  49.5650000 148.3430000
  59.2530000  50.2530000 148.1350000  59.3530000  48.7750000 148.4480000
  34.0890000  39.1840000 136.8710000  33.7290000  39.1550000 135.9840000
  34.5550000  40.0200000 136.9130000  33.6900000  85.5590000 164.0000000
  34.2190000  84.7610000 164.0000000  32.7850000  85.2470000 164.0000000
  77.3150000  77.5170000 123.5000000  78.0850000  77.9670000 123.8450000
  76.5730000  77.9600000 123.9130000  46.4960000  31.8730000 138.9850000
  46.5590000  31.0000000 138.5980000  46.6520000  32.4720000 138.2540000
  65.6640000  86.4090000 145.2290000  64.8370000  86.1770000 145.6490000
  66.1920000  86.7890000 145.9310000  73.8330000  43.8810000 145.7270000
  73.2750000  43.5140000 146.4130000  73.8970000  44.8110000 145.9430000
  51.2440000  69.5800000 125.2640000  50.4670000  69.2560000 125.7190000
  51.9780000  69.2900000 125.8070000  31.0110000  88.3590000 124.3080000
  31.0000000  87.4850000 123.9170000  31.0590000  88.9560000 123.5610000
  67.5220000  57.4260000 139.4000000  68.2830000  57.3830000 138.8210000
  67.0890000  56.5800000 139.2910000  48.8760000  62.9000000 147.1240000
  49.1520000  63.2790000 147.9580000  48.0760000  63.3750000 146.8980000
  79.2030000  81.7890000 161.9280000  79.9370000  81.3930000 162.3980000
  78.4780000  81.7690000 162.5540000  42.6790000  59.8390000 137.6700000
  43.3580000  60.5100000 137.6030000  42.0570000  60.0570000 136.9750000
  69.3360000  44.9320000 140.2590000  69.4300000  45.4050000 139.4330000
  68.4040000  44.7170000 140.3090000  73.8610000  82.2420000 137.9400000
  73.8470000  83.0170000 137.3790000  73.2970000  81.6110000 137.4920000
  36.0430000  78.6090000 131.4230000  36.8930000  78.1970000 131.5780000
  36.2530000  79.5160000 131.2000000  88.4150000  79.8710000 151.6300000
  88.9970000  79.7180000 150.8850000  88.9990000  79.9010000 152.3880000
  68.8230000  88.6600000 137.4280000  68.0420000  89.0000000 137.8650000
  69.5540000  89.0000000 137.9440000  47.9040000  84.3250000 162.5020000
  47.2520000  83.9040000 161.9420000  47.8690000  83.8340000 163.3230000
  48.9700000  82.6200000 125.5040000  48.9180000  82.8190000 124.5700000
  49.6550000  81.9530000 125.5700000  35.2070000  80.4570000 160.6990000
  34.3690000  80.2560000 161.1150000  35.4440000  81.3190000 161.0420000
  88.6260000  71.2530000 156.4340000  89.0000000  72.1210000 156.5830000
  88.5420000  71.1890000 155.4820000  71.4040000  38.0480000 149.2810000
  70.7560000  38.4290000 149.8740000  72.1990000  38.5580000 149.4350000
  44.8480000  44.8730000 137.5260000  44.5420000  44.2870000 136.8340000
  44.0520000  45.2920000 137.8550000  51.0020000  87.7780000 141.7600000
  50.2650000  87.2180000 141.5180000  51.1170000  88.3600000 141.0080000
  65.6410000  67.5230000 153.4700000  65.0920000  66.7390000 153.4950000
  65.0440000  68.2270000 153.2160000  73.4930000  70.9840000 141.3770000
  73.5720000  71.1500000 140.4380000  73.6830000  71.8280000 141.7870000
  67.8450000  57.1450000 123.6150000  67.7150000  57.3240000 124.5460000
  67.5430000  56.2430000 123.5000000  62.1260000  86.4980000 138.0060000
  63.0370000  86.2470000 138.1580000  61.9090000  87.0690000 138.7430000
  55.8250000  84.2260000 152.8940000  56.4620000  84.9290000 153.0180000
  55.6880000  84.1900000 151.9470000  35.6310000  46.0300000 127.0380000
  36.3770000  45.5340000 127.3740000  34.9320000  45.3810000 126.9490000
  33.9130000  38.0220000 129.1590000  33.2870000  37.5720000 129.7250000
  34.1830000  37.3580000 128.5240000  44.7430000  68.5500000 142.4080000
  44.3230000  68.3380000 143.2410000  44.2360000  68.0660000 141.7540000
  74.7970000  79.0790000 148.7430000  74.0680000  78.4880000 148.9330000
  74.7170000  79.2650000 147.8070000  46.4380000  31.8420000 123.5010000
  46.9320000  31.0220000 123.5010000  47.1080000  32.5260000 123.5010000
  44.3960000  66.0990000 127.7870000  43.9080000  66.6140000 127.1450000
  43.7260000  65.5940000 128.2490000  32.3830000  73.8430000 134.5730000
  33.0960000  73.8300000 135.2110000  31.5910000  73.7100000 135.0940000
  54.0370000  35.8440000 148.7900000  53.2100000  35.9000000 149.2690000
  54.4540000  35.0500000 149.1230000  49.3130000  64.4980000 143.2020000
  49.5060000  63.6470000 142.8100000  48.4190000  64.4130000 143.5340000
  35.8810000  68.9550000 126.0620000  36.7910000  69.0520000 126.3430000
  35.6310000  69.8270000 125.7550000  64.7940000  72.7970000 155.0030000
  64.5210000  71.9420000 155.3350000  64.0000000  73.3310000 155.0350000
  81.6150000  75.9510000 130.7910000  82.3600000  76.4210000 130.4190000
  81.1410000  76.6120000 131.2950000  32.1750000  84.1340000 141.7630000
  32.5520000  83.3680000 142.1950000  31.2900000  83.8620000 141.5210000
  72.3380000  69.1910000 156.9850000  72.1170000  68.2620000 156.9170000
  73.1580000  69.2060000 157.4810000  74.1740000  68.8460000 146.4480000
  74.6310000  69.6620000 146.6510000  73.2820000  69.1180000 146.2320000
  40.0180000  41.9320000 139.3390000  39.5650000  41.1730000 138.9740000
  40.0060000  42.5800000 138.6340000  65.2130000  31.5940000 135.1940000
  65.6130000  31.0020000 134.5570000  64.7710000  31.0150000 135.8150000
  62.7420000  39.3750000 146.3900000  63.6070000  39.0550000 146.6470000
  62.2660000  39.4690000 147.2150000  88.4140000  56.9980000 155.8310000
  89.0000000  57.5920000 155.3620000  89.0000000  56.3760000 156.2630000
  44.5270000  72.8640000 133.6870000  45.2330000  72.2620000 133.4500000
  43.8980000  72.7920000 132.9680000  63.6900000  54.0120000 159.7600000
  62.7690000  53.9960000 159.5000000  63.7400000  54.6970000 160.4260000
  58.0320000  55.0650000 123.5240000  57.0750000  55.0710000 123.5000000
  58.2780000  55.9910000 123.5030000  60.6910000  60.3770000 128.3830000
  60.3820000  59.8060000 129.0860000  61.0820000  59.7810000 127.7430000
  88.9800000  48.6230000 129.3500000  89.0000000  48.2940000 130.2480000
  88.9990000  47.8360000 128.8050000  60.2240000  40.7100000 126.9730000
  60.5840000  40.4270000 127.8140000  60.9830000  40.7660000 126.3930000
  31.6310000  75.0080000 158.0790000  32.0940000  74.6020000 158.8110000
  32.2650000  75.6190000 157.7030000  62.6030000  66.7460000 149.0400000
  62.8850000  67.6550000 149.1440000  63.3500000  66.3080000 148.6320000
  43.7440000  52.8870000 146.6730000  43.6010000  52.0050000 147.0170000
  44.5580000  52.8210000 146.1740000  50.4760000  57.0710000 125.9920000
  50.7310000  56.3430000 125.4250000  51.0620000  57.0040000 126.7460000
  34.6290000  82.7710000 137.6140000  35.0230000  83.6270000 137.4440000
  34.4290000  82.4220000 136.7450000  44.4490000  77.9400000 142.9880000
  45.0830000  77.2280000 142.9050000  44.8090000  78.5040000 143.6730000
  88.4150000  75.9670000 163.9300000  89.0000000  75.2100000 163.9200000
  89.0000000  76.7220000 164.0000000  45.3730000  46.2080000 128.8370000
  45.5140000  47.1240000 128.5990000  44.6070000  45.9420000 128.3270000
  75.9120000  34.4010000 162.2490000  74.9690000  34.3300000 162.3960000
  76.1750000  33.5300000 161.9520000  51.6900000  45.7310000 156.0260000
  52.4550000  45.3930000 156.4910000  51.0910000  44.9860000 155.9760000
  61.5910000  49.0290000 156.1240000  61.8910000  48.6780000 155.2860000
  61.9390000  49.9210000 156.1490000  58.0010000  34.1720000 157.3920000
  58.6960000  34.7870000 157.1560000  58.4270000  33.3150000 157.3870000
  31.2540000  74.6630000 123.6070000  32.1740000  74.9060000 123.5010000
  31.0080000  75.0210000 124.4600000  71.1250000  33.4150000 155.0560000
  70.6020000  33.4960000 154.2580000  71.1170000  32.4780000 155.2530000
  54.2050000  68.8790000 136.7010000  54.1490000  68.9210000 135.7470000
  54.2900000  67.9460000 136.8960000  65.9490000  33.5100000 132.2720000
  65.9180000  33.4670000 131.3160000  65.0470000  33.6980000 132.5330000
  47.4180000  45.7050000 126.9740000  48.1000000  46.2660000 127.3430000
  47.8950000  44.9810000 126.5680000  55.9670000  47.9590000 136.3540000
  56.5920000  48.6610000 136.1780000  55.4300000  48.2900000 137.0740000
  66.5620000  48.2500000 143.8120000  67.3200000  48.6590000 144.2300000
  66.0580000  48.9840000 143.4590000  44.9780000  77.7940000 162.2840000
  44.8010000  77.0520000 162.8620000  44.1120000  78.1010000 162.0150000
  59.4580000  67.4590000 158.3060000  59.5580000  67.3060000 159.2450000
  60.2050000  67.0110000 157.9090000  48.7020000  80.3510000 127.8890000
  47.8600000  79.8960000 127.8990000  48.4840000  81.2560000 127.6660000
  53.6080000  45.6060000 149.2700000  53.9950000  46.2390000 149.8740000
  52.8350000  45.2780000 149.7300000  61.6540000  82.3780000 138.8640000
  60.7200000  82.5820000 138.8350000  62.0870000  83.2320000 138.8720000
  38.9070000  86.2280000 154.3290000  39.7390000  85.9570000 153.9430000
  38.6530000  85.4970000 154.8920000  89.0000000  65.7030000 129.2770000
  88.9740000  65.7540000 128.3210000  88.8170000  66.5960000 129.5700000
  58.4010000  84.0180000 127.2040000  57.7690000  84.3580000 126.5710000
  59.1760000  83.8100000 126.6820000  43.9430000  85.6270000 131.6540000
  43.6440000  85.0840000 130.9250000  44.8860000  85.7180000 131.5140000
  58.4150000  31.1540000 158.7040000  57.6440000  31.0640000 158.1440000
  59.1560000  31.0000000 158.1180000  46.0600000  55.0130000 132.3840000
  45.2420000  54.5420000 132.5420000  45.8100000  55.9370000 132.3960000
  76.4050000  51.3710000 138.6880000  75.4810000  51.2100000 138.8800000
  76.7680000  50.5020000 138.5130000  89.0000000  61.0010000 147.6680000
  88.8590000  61.2970000 146.7690000  88.8740000  60.0520000 147.6300000
  60.4860000  60.1230000 142.8660000  60.6620000  59.5380000 143.6030000
  60.4750000  60.9990000 143.2530000  85.7230000  86.4960000 128.1390000
  86.2520000  86.6630000 127.3590000  86.3620000  86.3790000 128.8420000
  52.3340000  42.5590000 149.2660000  51.7010000  42.7250000 149.9640000
  52.5220000  41.6220000 149.3300000  37.4140000  43.9200000 155.6110000
  38.3620000  44.0500000 155.5780000  37.0610000  44.7810000 155.8360000
  73.5580000  34.9040000 154.2250000  73.6360000  34.2250000 154.8950000
  72.6680000  35.2410000 154.3260000  54.5660000  33.5630000 136.8550000
  55.0590000  32.9580000 137.4090000  54.1090000  32.9990000 136.2310000
  42.9300000  50.8530000 149.4250000  42.2190000  50.2160000 149.4910000
  43.7290000  50.3270000 149.4690000  51.5580000  31.0000000 161.7050000
  52.3320000  31.1000000 161.1510000  50.8200000  31.1660000 161.1180000
  85.3300000  76.3390000 148.3200000  84.4840000  75.9700000 148.5750000
  85.9170000  76.1130000 149.0420000  39.8690000  31.2840000 149.0920000
  39.0540000  31.0060000 148.6740000  39.7060000  32.1910000 149.3550000
  59.7780000  50.2480000 158.4540000  60.6580000  50.5350000 158.2080000
  59.2330000  51.0280000 158.3480000  88.5620000  83.0260000 141.5370000
  89.0000000  83.5780000 142.1850000  88.8890000  82.1430000 141.7130000
  88.9880000  63.7530000 137.4850000  88.9780000  62.9890000 138.0600000
  89.0000000  63.3870000 136.6000000  68.0310000  50.3290000 137.3730000
  68.8670000  50.2770000 137.8360000  67.3750000  50.3840000 138.0680000
  72.6390000  33.2850000 143.2500000  72.0980000  33.2970000 144.0400000
  72.0350000  33.0360000 142.5500000  57.5740000  33.1050000 150.6600000
  58.1350000  33.4540000 151.3530000  57.6050000  33.7670000 149.9690000
  31.0490000  39.3990000 130.0920000  31.0000000  38.7860000 130.8260000
  31.0000000  38.8440000 129.3130000  33.1330000  67.6320000 146.1810000
  33.1200000  66.7160000 146.4570000  33.3530000  67.5990000 145.2490000
  59.3260000  38.1120000 129.0720000  59.9130000  38.0720000 128.3170000
  59.5810000  38.9120000 129.5310000  44.8690000  72.9610000 139.3500000
  44.8960000  73.7020000 138.7450000  45.7320000  72.9610000 139.7660000
  68.4270000  73.9920000 152.1080000  68.9700000  74.7280000 152.3880000
  68.1420000  73.5810000 152.9250000  88.4130000  69.7200000 158.4460000
  89.0000000  69.0560000 158.0850000  88.9970000  70.4110000 158.7580000
  43.5130000  80.8400000 141.6170000  43.7130000  81.7280000 141.9130000
  43.5300000  80.8970000 140.6610000  51.1090000  47.7860000 149.1450000
  52.0110000  47.5140000 148.9750000  51.1910000  48.5350000 149.7340000
  54.0790000  77.9980000 131.2800000  55.0290000  77.9210000 131.3710000
  53.7400000  77.1570000 131.5880000  62.9480000  31.1700000 139.3160000
  63.7440000  31.0410000 139.8320000  63.2170000  31.0000000 138.4130000
  33.9180000  36.7070000 150.0050000  34.0440000  36.5360000 149.0720000
  34.6630000  37.2540000 150.2520000  66.9260000  45.2250000 153.3480000
  67.2190000  46.1360000 153.3160000  67.7350000  44.7130000 153.3450000
  70.5470000  85.3590000 155.3530000  71.4080000  85.2020000 154.9650000
  70.1770000  84.4850000 155.4790000  64.2860000  81.3430000 163.5920000
  64.2450000  81.3600000 162.6360000  63.9730000  82.2070000 163.8600000
  50.0980000  57.8140000 153.6610000  50.5680000  56.9810000 153.6170000
  50.2790000  58.1460000 154.5400000  55.4520000  83.8460000 149.4010000
  56.1960000  83.2690000 149.5720000  54.6870000  83.3420000 149.6800000
  39.8820000  54.6510000 129.9170000  40.2400000  55.5280000 130.0520000
  38.9420000  54.7910000 129.8010000  58.6960000  55.8510000 128.9920000
  58.6620000  56.4680000 129.7230000  57.8610000  55.9690000 128.5390000
  76.2670000  76.6700000 147.9040000  75.8210000  75.8530000 148.1290000
  75.7300000  77.0530000 147.2100000  33.3710000  82.4110000 126.8100000
  33.4320000  81.8540000 126.0340000  34.0830000  82.1140000 127.3760000
  77.5850000  86.4710000 143.3720000  77.6780000  85.5830000 143.0270000
  76.7790000  86.4440000 143.8880000  42.3930000  34.1190000 163.7490000
  41.6150000  33.6220000 164.0000000  42.0760000  35.0130000 163.6210000
  38.5880000  48.9410000 162.6920000  37.8290000  48.4050000 162.9190000
  39.2080000  48.7950000 163.4060000  40.5010000  51.9430000 147.9920000
  41.0600000  52.3190000 147.3120000  39.6260000  51.9300000 147.6040000
  78.5300000  72.1810000 140.0250000  79.1660000  71.5000000 139.8100000
  78.4260000  72.1220000 140.9750000  69.4950000  84.3920000 160.4070000
  69.6890000  85.0930000 159.7860000  69.7630000  83.5910000 159.9570000
  36.4060000  37.9060000 164.0000000  35.7640000  38.4510000 163.5460000
  36.8860000  37.4650000 163.2980000  67.5340000  32.8660000 150.0700000
  68.4130000  33.2410000 150.1240000  67.6330000  31.9730000 150.4000000
  87.8180000  83.6220000 137.6070000  87.2780000  84.3870000 137.8050000
  88.5720000  83.9760000 137.1350000  55.9740000  48.3240000 162.9550000
  56.4500000  47.6550000 162.4640000  56.0920000  48.0780000 163.8730000
  39.6690000  37.9940000 126.0110000  40.4240000  38.2610000 126.5350000
  39.0150000  38.6760000 126.1680000  76.5660000  65.6630000 162.8210000
  76.6140000  64.7100000 162.8990000  77.3460000  65.9810000 163.2760000
  74.9390000  67.0730000 153.0090000  75.8930000  67.1470000 153.0310000
  74.7460000  66.3050000 153.5470000  86.7820000  86.0370000 131.6040000
  85.9130000  86.3000000 131.3030000  86.8540000  86.4060000 132.4840000
  63.7820000  73.3530000 130.5060000  63.7470000  72.8510000 131.3200000
  64.6850000  73.6690000 130.4570000  37.1380000  71.0710000 161.7230000
  36.6320000  71.8590000 161.9200000  36.5670000  70.3480000 161.9820000
  38.0230000  64.0970000 135.1200000  37.6360000  63.2220000 135.1640000
  38.9680000  63.9410000 135.1040000  43.3270000  64.9460000 149.5450000
  42.7690000  64.7550000 148.7910000  42.8280000  65.5850000 150.0560000
  84.4590000  80.4400000 139.2670000  84.6210000  81.2990000 139.6570000
  83.9480000  79.9700000 139.9260000  31.9530000  48.8240000 123.5790000
  31.0000000  48.7510000 123.5260000  32.1270000  49.7620000 123.5000000
  52.4800000  36.7170000 140.5740000  53.4340000  36.7400000 140.6420000
  52.2560000  35.7900000 140.6630000  84.1130000  77.3500000 140.2330000
  84.3150000  77.7110000 141.0960000  83.1980000  77.5900000 140.0810000
  72.9200000  44.2220000 143.0370000  73.8740000  44.2540000 143.1000000
  72.7130000  43.2880000 142.9910000  44.2930000  51.5170000 137.0320000
  44.3580000  50.9250000 136.2820000  43.7290000  52.2280000 136.7280000
  62.6480000  63.5330000 148.0810000  62.7890000  62.5880000 148.1420000
  61.7220000  63.6510000 148.2950000  42.5030000  74.6780000 123.5050000
  43.4460000  74.8380000 123.5060000  42.4200000  73.7240000 123.5000000
  72.0230000  80.9980000 143.7270000  72.0880000  80.5760000 144.5830000
  72.0260000  81.9360000 143.9200000  50.7620000  76.8780000 157.8210000
  51.3140000  77.5680000 157.4520000  51.3030000  76.4780000 158.5030000
  80.4450000  87.9920000 144.4950000  81.0560000  88.6340000 144.1330000
  80.3940000  87.3070000 143.8280000  37.4520000  46.3320000 139.7350000
  36.4980000  46.2910000 139.7990000  37.6670000  47.2450000 139.9260000
  51.3150000  65.0630000 149.8810000  50.8870000  64.6970000 150.6550000
  50.6230000  65.1040000 149.2200000  60.7640000  72.9290000 163.9510000
  61.5840000  73.4210000 164.0000000  60.0800000  73.5980000 163.9840000
  56.6010000  31.3490000 135.0320000  55.8810000  31.0000000 135.5570000
  56.5200000  32.3000000 135.1160000  79.0140000  71.9120000 152.9430000
  79.6250000  71.6750000 152.2450000  79.4240000  72.6600000 153.3770000
  59.5510000  78.0570000 135.6920000  58.6430000  77.7550000 135.6870000
  60.0710000  77.2530000 135.7170000  70.9110000  41.2550000 142.5880000
  71.5930000  41.0800000 141.9390000  70.1100000  40.9080000 142.1950000
  88.4170000  69.7800000 139.1330000  89.0000000  70.5270000 139.0010000
  89.0000000  69.0210000 139.1540000  82.0650000  87.6950000 148.2510000
  82.8280000  87.1250000 148.3440000  82.4330000  88.5610000 148.0750000
  45.0630000  67.9340000 129.3490000  45.3650000  68.3490000 130.1570000
  45.8510000  67.8560000 128.8100000  47.9970000  31.4840000 153.2970000
  47.1910000  31.0000000 153.4780000  47.9320000  31.7210000 152.3720000
  77.6660000  31.0510000 123.9400000  77.4560000  31.0000000 124.8730000
  76.8170000  31.0010000 123.5000000  48.8300000  69.0340000 163.9970000
  49.3490000  69.8390000 164.0000000  48.0500000  69.2540000 163.4880000
  59.7630000  42.8240000 137.1880000  59.5120000  42.8170000 136.2640000
  59.3940000  43.6380000 137.5310000  63.8940000  33.8960000 138.5410000
  64.4910000  33.1480000 138.5360000  64.3610000  34.5790000 138.0600000
  83.5530000  82.1720000 131.7810000  84.1590000  82.6270000 131.1960000
  83.2740000  82.8410000 132.4060000  43.5330000  36.6110000 125.9410000
  43.2620000  37.4830000 126.2280000  43.9880000  36.2400000 126.6970000
  60.9560000  64.3390000 150.5740000  60.4610000  64.1830000 151.3780000
  61.5100000  65.0940000 150.7750000  71.9660000  68.7760000 134.2460000
  71.4190000  69.5490000 134.1030000  72.3220000  68.5710000 133.3810000
  76.3770000  35.0870000 136.0550000  76.4220000  34.1450000 135.8910000
  75.4420000  35.2920000 136.0230000  37.0520000  89.0010000 124.0850000
  37.8090000  88.9880000 123.4990000  36.2950000  88.9980000 123.4990000
  43.2510000  57.5790000 127.1560000  42.5920000  56.9910000 127.5240000
  43.7660000  57.8640000 127.9110000  34.8650000  32.3080000 152.9230000
  35.0680000  33.1550000 153.3190000  35.2200000  31.6640000 153.5360000
  64.3820000  63.3690000 153.6900000  65.0120000  63.2410000 154.3990000
  64.4600000  64.2970000 153.4660000  88.9660000  78.1950000 133.7280000
  88.9990000  78.1280000 134.6820000  88.9380000  77.2870000 133.4240000
  57.7300000  45.9840000 125.9480000  58.1770000  45.1380000 125.9640000
  58.4350000  46.6290000 126.0110000  31.0690000  50.8770000 152.4210000
  31.7610000  50.4490000 151.9160000  31.0180000  51.7610000 152.0550000
  75.6620000  36.1260000 160.1790000  75.2910000  36.8900000 159.7360000
  75.0370000  35.4220000 160.0050000  74.5220000  47.9120000 155.3420000
  74.0550000  48.6450000 154.9420000  74.0160000  47.1390000 155.0900000
  88.4280000  87.3090000 144.1780000  89.0000000  86.8290000 143.5790000
  89.0000000  87.9600000 144.5860000  70.1920000  34.6270000 157.0330000
  69.6270000  35.4000000 157.0390000  71.0810000  34.9810000 157.0030000
  32.4260000  83.7320000 129.0290000  32.8960000  82.9840000 129.3970000
  31.5100000  83.4540000 129.0080000  67.8410000  54.1810000 125.5730000
  67.3930000  55.0210000 125.6760000  68.4170000  54.3070000 124.8190000
  57.3040000  70.4580000 158.5520000  57.1550000  70.2690000 157.6250000
  56.4830000  70.2150000 158.9810000  42.0340000  85.6330000 141.5490000
  41.3740000  84.9410000 141.5460000  41.5410000  86.4360000 141.3800000
  72.8940000  81.9180000 123.5000000  72.6910000  80.9830000 123.5420000
  72.0500000  82.3520000 123.6220000  79.5040000  74.6170000 130.6600000
  79.0110000  75.3200000 131.0830000  79.2910000  73.8350000 131.1690000
  68.9110000  61.9580000 128.4170000  69.2720000  62.2380000 129.2580000
  68.7770000  61.0150000 128.5140000  56.2090000  68.9570000 131.5200000
  56.8780000  69.4670000 131.9780000  56.7030000  68.3970000 130.9210000
  83.5860000  65.7420000 151.5210000  83.9860000  65.1400000 152.1490000
  83.4990000  66.5660000 152.0010000  62.8320000  31.6420000 123.5100000
  63.5880000  32.2290000 123.5000000  62.0740000  32.2280000 123.5010000
  46.7660000  76.6780000 159.2640000  45.9590000  77.1920000 159.2280000
  47.4580000  77.3260000 159.3950000  50.5810000  85.7330000 155.5310000
  51.0850000  84.9220000 155.5980000  49.7870000  85.5640000 156.0380000
  31.7310000  55.5360000 147.3030000  32.5340000  55.8520000 147.7160000
  31.0320000  55.8040000 147.9000000  48.4840000  75.6980000 156.5110000
  48.5960000  76.6440000 156.5950000  47.5380000  75.5740000 156.4300000
  46.9720000  75.4800000 137.5200000  47.8110000  75.3500000 137.0780000
  47.0110000  76.3780000 137.8500000  50.5330000  54.2940000 123.5000000
  50.6350000  53.3470000 123.5980000  49.5900000  54.4420000 123.5680000
  60.3140000  85.0320000 144.2200000  60.6150000  85.7850000 143.7120000
  59.4830000  84.7850000 143.8130000  85.5040000  38.6880000 160.3910000
  84.8660000  38.2710000 159.8110000  85.7270000  38.0090000 161.0290000
  64.2810000  33.6450000 153.9040000  64.5950000  32.7900000 154.1970000
  63.3410000  33.6310000 154.0870000  34.8170000  73.5860000 152.4510000
  34.7930000  72.7610000 152.9340000  34.0660000  74.0800000 152.7810000
  76.7090000  67.4670000 129.1000000  76.6610000  66.7140000 128.5120000
  77.4040000  68.0140000 128.7330000  84.7470000  37.5030000 157.4320000
  85.7020000  37.5360000 157.4770000  84.5430000  36.5720000 157.3380000
  88.9480000  48.4290000 145.7560000  88.0100000  48.2620000 145.8490000
  88.9990000  49.2280000 145.2310000  42.7360000  70.8960000 137.4840000
  43.1870000  70.0590000 137.6000000  41.8650000  70.7530000 137.8540000
  44.5010000  34.0280000 132.5420000  44.8910000  34.8850000 132.7140000
  44.0600000  33.7960000 133.3590000  84.2540000  51.1770000 135.4840000
  83.4290000  50.7020000 135.3920000  84.8730000  50.5230000 135.8100000
  73.9020000  49.1480000 145.3280000  74.0150000  49.8590000 145.9590000
  73.6430000  49.5870000 144.5170000  41.4050000  38.5900000 142.3960000
  41.4080000  39.1590000 143.1650000  42.3300000  38.3940000 142.2390000
  63.3650000  31.0890000 145.7100000  64.1420000  31.1690000 145.1570000
  62.6390000  31.0000000 145.0930000  51.2860000  66.9360000 126.3570000
  52.1030000  66.5810000 126.0050000  50.6010000  66.3960000 125.9630000
  48.0190000  70.5390000 143.3380000  47.2920000  69.9420000 143.5130000
  48.1530000  70.4840000 142.3910000  56.1460000  36.5660000 140.3930000
  56.5260000  36.0000000 139.7210000  56.5670000  37.4150000 140.2560000
  65.4050000  82.1690000 134.8010000  66.3500000  82.1590000 134.6460000
  65.1590000  81.2450000 134.8400000  52.5690000  88.7810000 129.6950000
  52.5850000  87.8720000 129.3990000  51.6390000  88.9980000 129.7550000
  47.5040000  48.5900000 140.8490000  48.0330000  47.7960000 140.9100000
  46.6050000  48.2740000 140.7550000  37.7970000  55.5810000 148.3160000
  37.8000000  54.8640000 147.6820000  38.6850000  55.9380000 148.2770000
  78.9480000  46.2420000 126.1970000  79.4650000  45.4380000 126.1640000
  79.5960000  46.9460000 126.1630000  78.8170000  83.5540000 130.2560000
  79.0000000  82.6310000 130.4300000  78.4730000  83.8910000 131.0830000
  34.3970000  84.2190000 160.8700000  34.5930000  84.9910000 161.4010000
  35.1810000  84.0890000 160.3360000  65.6680000  46.7960000 151.1350000
  66.6050000  46.9590000 151.0360000  65.4220000  46.3190000 150.3420000
  61.6800000  79.6680000 137.7420000  62.1490000  80.1680000 137.0750000
  60.8500000  79.4320000 137.3270000  43.8520000  31.1560000 133.4870000
  44.7110000  31.0000000 133.8810000  43.2300000  31.0000000 134.1990000
  53.9550000  65.5030000 138.3960000  53.8510000  65.5350000 137.4450000
  53.1800000  65.0340000 138.7070000  42.2330000  72.8130000 155.4470000
  42.8310000  72.1440000 155.1120000  42.1920000  73.4680000 154.7490000
  69.8230000  31.8330000 124.0480000  69.0450000  31.9380000 123.5010000
  70.5450000  32.1400000 123.5000000  50.0960000  61.8040000 163.9970000
  49.6390000  60.9630000 163.9950000  51.0250000  61.5730000 164.0000000
  69.4320000  52.5040000 148.8550000  70.2290000  52.2980000 148.3660000
  68.9940000  53.1740000 148.3290000  52.8340000  71.2560000 137.1780000
  53.6850000  71.1560000 137.6040000  53.0080000  71.0870000 136.2510000
  88.6670000  39.8510000 161.1160000  88.9890000  39.0130000 161.4490000
  89.0000000  40.5000000 161.7360000  80.0500000  87.1420000 153.7490000
  80.3030000  87.9000000 153.2220000  79.1090000  87.0500000 153.6000000
  34.1450000  54.9480000 156.8500000  33.3600000  54.4510000 156.6200000
  34.0760000  55.0800000 157.7960000  83.2560000  56.4660000 137.5080000
  84.1870000  56.4570000 137.2840000  83.0230000  57.3940000 137.5270000
  53.5130000  77.7080000 151.2510000  54.4390000  77.8920000 151.4060000
  53.1440000  78.5480000 150.9760000  67.0870000  41.0230000 126.7390000
  68.0080000  40.9320000 126.9820000  67.0180000  40.5890000 125.8890000
  84.0020000  69.5820000 131.6340000  83.4750000  69.1530000 130.9600000
  84.4300000  70.3070000 131.1790000  33.2270000  69.2280000 158.7540000
  32.6340000  68.4780000 158.7440000  34.1030000  68.8420000 158.7220000
  54.1740000  33.9690000 139.6730000  54.4700000  34.7040000 139.1350000
  54.4850000  34.1760000 140.5540000  81.7800000  72.0090000 145.5610000
  81.1350000  71.6380000 144.9600000  81.3830000  72.8250000 145.8670000
  60.9110000  50.7180000 139.1160000  61.6550000  50.7850000 138.5180000
  60.1810000  50.4430000 138.5610000  76.9610000  31.5670000 141.4110000
  77.6720000  32.0910000 141.0440000  77.3870000  31.0000000 142.0540000
  32.3010000  48.8570000 161.5140000  31.9850000  48.0170000 161.8460000
  33.0880000  49.0380000 162.0290000  58.0680000  84.8690000 149.1400000
  58.5980000  85.0140000 148.3560000  57.4270000  85.5800000 149.1310000
  62.9020000  43.7470000 154.7260000  62.9450000  43.6540000 155.6780000
  63.2780000  44.6100000 154.5520000  32.9940000  71.4320000 151.5870000
  32.9320000  72.2770000 151.1430000  33.0960000  70.7960000 150.8780000
  46.1970000  72.7730000 142.2190000  46.1200000  72.1080000 142.9030000
  47.1040000  72.7080000 141.9220000  61.3880000  79.7760000 124.0340000
  62.3010000  79.4900000 124.0730000  60.9980000  79.4430000 124.8420000
  69.5220000  41.7450000 130.8310000  69.2930000  41.8680000 129.9100000
  70.3780000  42.1640000 130.9240000  75.1820000  33.1950000 148.9130000
  75.2530000  33.9900000 149.4400000  75.7890000  33.3340000 148.1860000
  89.0000000  58.0590000 142.1630000  88.3450000  58.2450000 142.8350000
  89.0000000  58.8370000 141.6050000  63.8390000  68.4160000 125.8520000
  64.0430000  68.9280000 126.6340000  64.5310000  67.7560000 125.8100000
  85.1160000  34.4720000 128.6000000  85.6230000  33.6630000 128.5330000
  84.7580000  34.6050000 127.7220000  70.4480000  66.0720000 163.7850000
  70.7350000  66.9600000 163.9990000  69.5150000  66.0630000 164.0000000
  85.8060000  50.6290000 150.4040000  85.6330000  51.5650000 150.3000000
  84.9370000  50.2310000 150.4710000  67.9720000  88.9540000 125.9980000
  68.6290000  88.9990000 125.3030000  67.7320000  88.0290000 126.0410000
  44.1230000  50.0280000 140.7090000  43.6960000  49.2000000 140.4890000
  43.7210000  50.6690000 140.1230000  75.5700000  31.8270000 159.9760000
  74.9130000  32.4340000 159.6360000  75.0890000  31.0130000 160.1290000
  56.5790000  31.0000000 141.1110000  56.4620000  31.7290000 141.7200000
  57.5120000  31.0110000 140.8990000  60.7550000  88.9880000 126.9140000
  61.6850000  88.9170000 127.1290000  60.7300000  89.0000000 125.9570000
  83.6940000  33.5640000 151.7380000  82.8170000  33.6640000 152.1080000
  83.6470000  34.0030000 150.8880000  40.3790000  34.5950000 150.5780000
  40.6890000  34.6360000 151.4830000  40.2700000  35.5100000 150.3200000
  40.8320000  62.4880000 133.4660000  40.1810000  62.8660000 132.8750000
  40.3150000  62.0630000 134.1510000  37.1330000  85.8170000 163.9100000
  37.9050000  86.3830000 163.8950000  36.7700000  85.8840000 163.0260000
  40.5620000  53.4920000 158.6750000  40.3460000  52.5620000 158.7510000
  40.5590000  53.6620000 157.7330000  38.4450000  80.1860000 126.1290000
  37.5720000  79.8100000 126.0150000  38.9210000  79.5370000 126.6470000
  35.5790000  81.7490000 123.6330000  35.5530000  81.1270000 124.3600000
  36.5110000  81.9230000 123.5000000  70.2480000  39.9050000 153.7740000
  70.9240000  39.6490000 154.4010000  70.1280000  39.1320000 153.2220000
  34.6770000  37.2190000 161.6620000  33.7880000  36.8630000 161.6730000
  35.2440000  36.4480000 161.6590000  49.6560000  89.0000000 128.0350000
  49.9110000  88.0900000 128.1890000  48.7800000  88.9430000 127.6530000
  42.9070000  87.9540000 136.4800000  43.3220000  88.8160000 136.4980000
  43.6270000  87.3440000 136.3150000  37.6300000  74.7770000 133.1640000
  37.1140000  75.5750000 133.0470000  37.1090000  74.0910000 132.7460000
  75.5600000  85.9840000 161.7430000  74.6130000  86.0420000 161.6120000
  75.7870000  86.7900000 162.2090000  50.3910000  53.0500000 163.3770000
  50.1890000  52.5810000 162.5680000  51.3480000  53.0620000 163.4150000
  47.5250000  63.8110000 137.6860000  46.7170000  63.3280000 137.8560000
  47.4430000  64.1040000 136.7780000  43.5220000  47.1330000 153.7100000
  42.8740000  46.4330000 153.6360000  43.0140000  47.9410000 153.6290000
  70.9590000  76.5070000 136.1070000  70.8210000  75.6630000 136.5370000
  71.8640000  76.4730000 135.7980000  34.7860000  88.0880000 155.6480000
  35.0210000  88.9620000 155.3390000  34.0500000  87.8270000 155.0940000
  64.4410000  71.3940000 128.9750000  64.5380000  70.7470000 128.2760000
  64.8870000  71.0040000 129.7270000  50.6830000  82.8310000 145.3210000
  50.4300000  81.9080000 145.3250000  51.6410000  82.8170000 145.3020000
  69.8400000  31.4480000 142.8480000  70.5850000  31.0020000 142.4460000
  69.7150000  31.0000000 143.6850000  58.7840000  37.1830000 155.2460000
  59.6050000  36.8500000 155.6070000  58.8620000  38.1350000 155.3100000
  31.0260000  66.8660000 143.0080000  31.1570000  67.1830000 143.9010000
  31.2350000  67.6190000 142.4530000  82.0720000  37.2360000 130.9830000
  82.8500000  37.0850000 130.4460000  81.7630000  36.3580000 131.2090000
  59.0740000  38.7080000 162.2780000  58.4530000  39.1490000 161.6970000
  58.6160000  38.6480000 163.1160000  83.3650000  81.3000000 146.7270000
  82.8830000  82.1260000 146.7150000  82.6950000  80.6290000 146.5960000
  77.0890000  61.9030000 132.2140000  77.8120000  62.5070000 132.0460000
  77.2680000  61.5510000 133.0860000  46.7320000  71.7830000 150.0390000
  46.6400000  71.0020000 150.5850000  45.9320000  72.2840000 150.2000000
  83.7630000  80.2340000 161.5110000  83.8730000  80.0340000 160.5810000
  84.1930000  81.0820000 161.6260000  46.7230000  45.5530000 123.5340000
  45.7710000  45.4530000 123.5030000  46.9030000  45.8610000 124.4230000
  47.5410000  36.7040000 147.7210000  47.2070000  35.8290000 147.5270000
  48.4830000  36.6430000 147.5610000  88.9300000  50.0160000 136.0120000
  88.8010000  49.3740000 136.7100000  88.1130000  50.5160000 135.9930000
  53.6250000  60.3030000 138.3850000  52.7230000  60.0560000 138.1820000
  54.0490000  59.4810000 138.6340000  58.3960000  39.5240000 123.5000000
  59.3170000  39.2650000 123.5320000  58.4150000  40.4810000 123.5250000
  37.6570000  69.9480000 147.2950000  36.7170000  70.0880000 147.4090000
  37.7460000  69.0020000 147.1740000  63.6590000  39.3450000 155.1860000
  63.0000000  38.6650000 155.0490000  64.4100000  38.8800000 155.5570000
  53.5100000  39.8070000 129.3400000  53.5910000  38.9080000 129.6550000
  54.2900000  39.9440000 128.8010000  64.6740000  43.9710000 134.2300000
  65.5880000  44.1540000 134.4480000  64.2730000  44.8350000 134.1340000
  48.0820000  43.5660000 147.8910000  48.6970000  43.9300000 148.5280000
  47.5240000  42.9810000 148.4030000  38.9660000  50.1120000 130.1040000
  39.2910000  50.2110000 130.9990000  38.3060000  49.4220000 130.1630000
  35.7380000  70.1190000 150.2050000  35.6590000  69.2140000 149.9030000
  36.6520000  70.2020000 150.4780000  33.7340000  79.6400000 127.2890000
  32.9400000  79.5140000 126.7700000  34.4470000  79.5990000 126.6510000
  59.2180000  56.5980000 143.6620000  59.8690000  57.1700000 144.0680000
  58.8460000  57.1230000 142.9530000  86.2150000  64.3190000 156.4500000
  85.7020000  63.8910000 157.1340000  86.5470000  65.1170000 156.8620000
  85.9650000  63.9400000 147.5930000  86.1230000  63.0780000 147.9770000
  85.2410000  64.3020000 148.1040000  78.7590000  79.4440000 163.4300000
  79.5250000  79.3720000 163.9990000  78.0170000  79.2420000 164.0000000
  76.2400000  76.5230000 132.7250000  76.8820000  75.9970000 132.2490000
  75.4950000  75.9350000 132.8530000  43.3140000  49.4250000 125.9650000
  42.5040000  49.3940000 125.4560000  43.1900000  48.7700000 126.6520000
  31.6110000  31.0000000 158.1940000  32.5580000  31.0740000 158.3070000
  31.4490000  31.3220000 157.3060000  43.7220000  31.0000000 156.5350000
  44.5890000  31.0260000 156.9380000  43.1200000  31.2160000 157.2470000
  41.0460000  43.2330000 163.8090000  40.4000000  43.9130000 164.0000000
  40.5860000  42.4110000 163.9790000  42.3830000  79.9020000 138.6750000
  41.4450000  79.7220000 138.7400000  42.8030000  79.1280000 139.0510000
  66.0980000  88.4590000 152.9300000  66.7370000  89.0000000 153.3940000
  65.8180000  89.0000000 152.1910000  76.9090000  45.5530000 132.8240000
  77.6160000  44.9560000 133.0670000  77.3480000  46.3840000 132.6420000
  82.0590000  81.4870000 143.7940000  82.6110000  81.9580000 143.1710000
  81.2380000  81.3390000 143.3250000  60.9490000  38.2300000 151.5180000
  61.1890000  38.6350000 152.3510000  61.7810000  37.9440000 151.1410000
  32.8990000  65.2500000 159.0350000  33.3410000  66.0990000 159.0440000
  32.1640000  65.3690000 158.4320000  34.0690000  78.9830000 133.2030000
  33.1650000  78.7840000 132.9610000  34.0690000  78.9760000 134.1600000
  57.9880000  43.9250000 147.6740000  57.3520000  44.1540000 146.9980000
  57.6260000  43.1420000 148.0900000  83.7490000  77.6320000 143.5810000
  83.7990000  76.7100000 143.3270000  83.4550000  77.6150000 144.4920000
  82.1430000  42.0410000 123.9010000  82.9390000  41.5170000 123.9910000
  81.4330000  41.3990000 123.8860000  31.2460000  43.4070000 138.7000000
  31.0000000  42.7430000 138.0560000  31.0000000  43.0270000 139.5430000
  70.4540000  74.3880000 130.7300000  71.2050000  74.9540000 130.9100000
  70.6990000  73.9090000 129.9380000  47.4570000  75.2420000 140.9080000
  47.1950000  75.1100000 139.9960000  47.6280000  76.1820000 140.9750000
  31.8270000  40.9210000 152.2720000  31.6290000  40.0130000 152.0430000
  31.0000000  41.3870000 152.1440000  53.6150000  35.9770000 123.6800000
  54.1540000  36.7460000 123.5000000  52.7410000  36.3300000 123.8490000
  58.3440000  75.1730000 136.1420000  59.1790000  75.0350000 136.5900000
  58.5760000  75.2270000 135.2150000  41.1150000  41.3470000 146.6030000
  41.9380000  41.8150000 146.7470000  41.3700000  40.4260000 146.5460000
  88.4320000  52.4640000 144.0860000  89.0000000  51.9430000 144.6530000
  89.0000000  52.7440000 143.3680000  77.6250000  72.5200000 161.7680000
  77.0430000  71.7620000 161.7120000  78.4210000  72.1810000 162.1770000
  64.8620000  33.7710000 143.2280000  64.3420000  33.0690000 142.8370000
  65.7670000  33.4670000 143.1570000  41.2180000  88.7040000 123.7640000
  41.4630000  87.8110000 123.5200000  40.3000000  88.7800000 123.5020000
  65.0420000  76.5050000 148.8160000  65.2760000  77.4270000 148.9230000
  64.9390000  76.1780000 149.7100000  46.4340000  56.0620000 163.4550000
  45.5850000  55.9960000 163.8920000  47.0180000  55.5140000 163.9790000
  33.7480000  57.5670000 133.8170000  33.3150000  58.0540000 133.1170000
  34.0130000  56.7430000 133.4080000  32.7310000  61.6540000 145.0370000
  32.0530000  61.1090000 144.6380000  33.0550000  62.1980000 144.3180000
  46.6430000  63.2830000 156.7340000  46.6280000  63.3130000 157.6900000
  47.3290000  63.9030000 156.4850000  37.1360000  67.1970000 149.9060000
  37.8370000  66.9560000 149.3000000  37.5670000  67.2560000 150.7590000
  56.5970000  44.9190000 128.5840000  57.1180000  45.5330000 129.1010000
  57.1980000  44.1990000 128.3890000  37.2430000  75.8280000 138.3240000
  36.4420000  76.3040000 138.1050000  37.4250000  75.2950000 137.5500000
  84.7460000  55.5650000 140.8520000  84.5450000  56.4480000 141.1590000
  84.7050000  55.0220000 141.6400000  73.3150000  39.9920000 151.2100000
  73.9920000  39.3420000 151.0210000  73.4670000  40.6880000 150.5700000
  69.8210000  46.3600000 161.7070000  69.0270000  46.8750000 161.5640000
  69.5040000  45.5220000 162.0480000  33.8460000  65.3950000 128.1440000
  33.2840000  65.8680000 127.5300000  33.2460000  64.8270000 128.6280000
  34.5450000  34.8210000 131.0540000  33.9380000  34.1190000 131.2880000
  34.2370000  35.5800000 131.5500000  44.6230000  61.5260000 142.4800000
  45.1910000  61.0420000 143.0800000  45.0380000  62.3850000 142.3970000
  62.1970000  54.2950000 125.1730000  62.8250000  54.9660000 125.4400000
  62.7040000  53.4830000 125.1610000  66.3660000  51.3970000 144.1410000
  67.2090000  51.1860000 143.7410000  65.7610000  51.4660000 143.4030000
  31.0260000  83.1900000 136.6330000  31.9480000  82.9590000 136.7460000
  31.0000000  83.6740000 135.8070000  87.0850000  88.5970000 135.0460000
  87.1640000  88.4840000 135.9930000  87.0750000  87.7050000 134.6970000
  81.6160000  88.4130000 129.8920000  81.5250000  88.9970000 130.6450000
  81.6870000  89.0000000 129.1390000  63.2200000  64.0470000 130.8370000
  63.9650000  63.5680000 130.4750000  62.4550000  63.5310000 130.5810000
  54.3710000  73.1780000 138.9040000  55.2420000  73.5740000 138.9120000
  53.7690000  73.9220000 138.9420000  77.5340000  48.2000000 130.8560000
  76.9260000  47.9370000 130.1660000  78.0390000  48.9170000 130.4710000
  76.1390000  64.6010000 145.3140000  76.7240000  63.8770000 145.0900000
  75.6840000  64.8030000 144.4960000  82.1200000  43.9370000 159.4330000
  81.7030000  43.0820000 159.3280000  83.0290000  43.7350000 159.6560000
  87.7640000  88.4050000 146.7500000  88.5630000  88.9140000 146.8840000
  87.0550000  89.0000000 146.9970000  67.3280000  53.4310000 130.1610000
  66.6770000  52.7500000 130.3290000  67.2530000  54.0250000 130.9080000
  43.8910000  62.2510000 129.0290000  44.0680000  62.0090000 129.9380000
  43.2960000  61.5720000 128.7110000  88.8870000  62.7650000 123.7920000
  89.0000000  63.6700000 123.5000000  88.9560000  62.8110000 124.7460000
  57.0500000  61.8130000 145.1880000  56.4150000  61.0970000 145.1820000
  56.7300000  62.4230000 144.5230000  69.4850000  47.9900000 140.0120000
  70.2560000  47.7720000 139.4890000  68.8430000  48.3030000 139.3750000
  63.2770000  74.6400000 161.4850000  62.9980000  73.7320000 161.3710000
  63.7200000  74.8600000 160.6640000  69.3410000  35.6590000 134.4190000
  69.5960000  35.5620000 135.3360000  68.5630000  36.2160000 134.4440000
  78.4390000  69.9370000 127.4440000  79.3720000  69.8520000 127.6430000
  78.4000000  70.6020000 126.7570000  83.3430000  86.1620000 131.2900000
  82.9660000  85.4250000 131.7700000  82.8030000  86.9130000 131.5390000
  69.0670000  81.4580000 134.9750000  69.8760000  81.2340000 134.5140000
  69.3510000  82.0120000 135.7020000  31.5810000  61.9330000 159.5260000
  31.0000000  61.2750000 159.1440000  31.0000000  62.6550000 159.7660000
  77.2480000  38.5000000 128.5810000  76.8920000  39.2070000 129.1190000
  76.5850000  38.3570000 127.9040000  72.6410000  83.1610000 135.1940000
  72.9450000  82.2580000 135.1030000  71.6880000  83.0910000 135.2410000
  55.8080000  77.4190000 154.3550000  56.7250000  77.6910000 154.3150000
  55.3480000  78.0430000 153.7930000  48.5500000  50.2420000 144.2460000
  47.7460000  50.2590000 144.7660000  48.9550000  49.4000000 144.4580000
  59.1210000  73.6270000 157.1410000  59.6610000  73.9340000 156.4130000
  58.3570000  73.2310000 156.7230000  38.6930000  84.9780000 148.3010000
  38.7140000  85.9290000 148.1950000  39.6090000  84.7300000 148.4280000
  52.5660000  80.4940000 158.5280000  52.4550000  80.8250000 157.6360000
  53.1680000  79.7550000 158.4360000  31.0000000  51.5140000 144.2650000
  31.0490000  52.3030000 144.8040000  31.0120000  51.8380000 143.3640000
  71.8470000  88.4300000 123.6010000  71.1810000  88.9870000 124.0030000
  72.6090000  89.0000000 123.5000000  72.5890000  46.2450000 161.5210000
  72.5440000  46.6610000 160.6610000  73.3830000  46.6020000 161.9200000
  66.3150000  36.5430000 133.1310000  65.6040000  36.7230000 133.7460000
  65.9010000  36.0500000 132.4230000  66.2500000  35.8510000 143.7340000
  66.6150000  36.5500000 143.1910000  65.6400000  36.2990000 144.3220000
  78.7950000  35.5710000 152.8960000  78.6020000  34.6340000 152.9210000
  77.9710000  35.9790000 152.6300000  78.2820000  42.5660000 135.9590000
  78.8350000  42.2960000 136.6910000  77.3900000  42.5260000 136.3040000
  59.2830000  36.8060000 138.2620000  58.6810000  37.0220000 138.9740000
  60.0070000  37.4250000 138.3640000  82.3100000  40.9040000 146.7700000
  81.9010000  41.5030000 147.3950000  82.7290000  41.4770000 146.1280000
  74.8030000  80.2660000 156.0500000  74.1190000  80.8910000 155.8090000
  75.5800000  80.8050000 156.1960000  36.1660000  57.1440000 128.3090000
  35.5000000  57.0530000 127.6270000  36.2110000  56.2800000 128.7180000
  76.1170000  50.0610000 141.9310000  76.0980000  50.8890000 141.4510000
  76.9950000  50.0230000 142.3100000  39.2900000  59.9730000 131.7630000
  39.5280000  60.8160000 131.3770000  39.7070000  59.3230000 131.1960000
  67.5550000  62.1340000 156.4350000  67.5310000  63.0690000 156.2320000
  68.4850000  61.9070000 156.4110000  80.7590000  78.5960000 150.1940000
  80.4810000  78.7000000 151.1040000  80.2130000  79.2120000 149.7050000
  77.8210000  40.9350000 156.2250000  78.3380000  41.0800000 157.0170000
  78.3570000  41.2960000 155.5180000  57.1690000  61.9550000 153.2500000
  57.3210000  61.7240000 152.3340000  56.5540000  62.6880000 153.2130000
  60.6590000  52.6360000 163.9870000  61.3260000  51.9500000 164.0000000
  59.8270000  52.1610000 163.9520000  33.6600000  31.9070000 146.6390000
  34.2610000  32.4340000 146.1130000  33.9770000  31.0090000 146.5380000
  63.8770000  43.7020000 149.0620000  63.2960000  43.3580000 149.7410000
  63.9290000  44.6410000 149.2440000  37.1180000  39.3510000 160.4920000
  37.3780000  38.8030000 159.7520000  36.7890000  38.7310000 161.1450000
  54.1960000  86.1770000 149.7470000  53.6490000  85.5740000 149.2440000
  54.2810000  85.7620000 150.6060000  78.2580000  80.5770000 156.0720000
  77.9240000  80.1380000 155.2900000  78.0240000  79.9930000 156.7930000
  85.0820000  71.4820000 152.1350000  85.8790000  72.0080000 152.0650000
  84.5300000  71.9630000 152.7510000  35.7090000  75.8540000 153.4660000
  36.3080000  75.2680000 153.9290000  34.9930000  76.0020000 154.0840000
  69.6920000  81.5130000 158.1430000  70.1610000  81.1130000 158.8760000
  68.7660000  81.3920000 158.3560000  88.8300000  73.2960000 123.5000000
  88.9790000  73.6610000 124.3720000  89.0000000  72.3590000 123.6010000
  48.6840000  43.2060000 156.8580000  48.8740000  44.1390000 156.7600000
  48.4200000  43.1090000 157.7730000  55.6720000  51.1530000 150.1840000
  54.9310000  50.6180000 150.4670000  55.2720000  51.9540000 149.8420000
  80.1540000  69.3010000 150.6880000  80.8970000  69.5630000 150.1450000
  80.5510000  68.8630000 151.4420000  60.9110000  51.0170000 129.6250000
  61.3390000  50.9240000 128.7740000  61.6330000  51.0890000 130.2500000
  57.9290000  45.9520000 152.1920000  58.8410000  46.0290000 151.9120000
  57.9210000  45.2000000 152.7850000  34.9410000  47.4580000 141.4570000
  34.5220000  47.5920000 140.6070000  34.2640000  47.6830000 142.0960000
  81.7950000  58.9780000 133.4230000  81.2930000  59.1820000 134.2120000
  81.2090000  58.4290000 132.9010000  63.1330000  80.5880000 142.0440000
  63.1400000  81.2790000 142.7060000  62.5300000  80.9050000 141.3720000
  45.5400000  51.4350000 160.5160000  44.8980000  51.8130000 159.9150000
  45.2020000  50.5600000 160.7080000  68.4770000  33.7500000 152.5910000
  67.5650000  33.9390000 152.3700000  68.8360000  34.5930000 152.8700000
  68.3100000  73.6160000 146.5210000  68.2540000  72.6750000 146.3590000
  67.9200000  73.7350000 147.3870000  67.2610000  68.7860000 138.9000000
  67.8870000  68.0890000 138.7030000  66.5400000  68.3410000 139.3480000
  34.0780000  32.1560000 125.4300000  34.3220000  31.2650000 125.1800000
  34.0300000  32.6330000 124.6010000  74.5950000  79.7520000 158.7200000
  74.6700000  80.6240000 159.1070000  75.4660000  79.5710000 158.3670000
  76.6030000  45.8620000 135.2850000  75.9670000  46.5770000 135.2770000
  76.1540000  45.1470000 135.7380000  88.9710000  42.6590000 136.8420000
  88.9070000  42.1720000 137.6640000  89.0000000  43.5780000 137.1090000
  63.6280000  71.8920000 152.2030000  62.9340000  71.4450000 151.7190000
  63.3660000  71.8170000 153.1210000  38.6600000  68.5910000 159.3120000
  39.5790000  68.8300000 159.1920000  38.2340000  68.8580000 158.4970000
  89.0000000  44.6810000 156.1850000  88.0810000  44.4150000 156.1870000
  88.9920000  45.5670000 155.8230000  41.6150000  58.5610000 151.3350000
  40.7060000  58.4330000 151.6080000  42.0110000  59.0650000 152.0460000
  85.2710000  61.9800000 155.5800000  85.0480000  61.0520000 155.5180000
  86.2260000  62.0020000 155.5110000  65.2070000  60.9720000 130.8260000
  65.6240000  60.5500000 130.0750000  65.4860000  60.4510000 131.5800000
  74.7620000  81.4020000 149.6760000  75.6570000  81.7410000 149.6640000
  74.4360000  81.5520000 148.7880000  57.7740000  75.3160000 145.0050000
  57.7180000  76.1020000 145.5470000  56.8840000  74.9620000 145.0010000
  53.3000000  44.4240000 128.3420000  53.2500000  44.8350000 129.2050000
  52.3870000  44.2900000 128.0860000  52.7700000  42.9370000 134.3700000
  53.2380000  43.7390000 134.1370000  53.2950000  42.5460000 135.0680000
  37.4490000  55.8140000 151.0490000  36.8760000  56.5800000 151.0810000
  38.2980000  56.1600000 150.7760000  37.6310000  83.6970000 129.1800000
  38.0600000  83.6880000 128.3250000  37.8370000  84.5580000 129.5430000
  59.8950000  62.3460000 139.8590000  60.7010000  62.8440000 139.7260000
  60.1870000  61.4420000 139.9760000  65.7330000  58.0690000 163.9120000
  65.6670000  58.9680000 163.5910000  66.6660000  57.8620000 163.8520000
  41.0380000  64.7480000 136.6280000  40.2490000  65.2620000 136.7970000
  41.7440000  65.2540000 137.0320000  71.3090000  34.1620000 132.5620000
  71.7600000  33.5160000 132.0180000  70.5900000  33.6750000 132.9660000
  59.2590000  45.3880000 144.3740000  58.3960000  45.5010000 144.7710000
  59.8250000  45.1270000 145.1010000  70.8000000  85.6760000 150.7610000
  70.2560000  86.1760000 151.3700000  70.8340000  84.7960000 151.1380000
  60.6160000  44.8600000 154.4280000  60.9790000  45.6500000 154.8270000
  59.6860000  44.8810000 154.6560000  61.4550000  31.3700000 136.6790000
  60.5770000  31.0000000 136.5910000  61.9220000  31.0680000 135.9000000
  41.6830000  79.4280000 155.8860000  41.7990000  80.3280000 155.5830000
  40.8480000  79.4390000 156.3540000  79.3010000  44.2550000 158.1650000
  79.3140000  43.3160000 158.3460000  79.8010000  44.3510000 157.3540000
  35.8730000  43.7410000 129.4800000  35.7440000  44.6770000 129.6360000
  36.8220000  43.6390000 129.4070000  86.6100000  77.5110000 151.5860000
  87.5670000  77.5140000 151.5710000  86.3670000  78.4380000 151.5820000
  79.2770000  39.3030000 161.8070000  79.8490000  39.9710000 162.1850000
  78.5430000  39.7970000 161.4390000  48.3110000  73.4390000 134.3450000
  47.6710000  72.7480000 134.1750000  49.0040000  73.0060000 134.8450000
  85.9070000  65.5630000 142.7280000  86.6630000  65.1080000 142.3580000
  85.4270000  64.8830000 143.2030000  74.4130000  85.6860000 144.1660000
  74.6430000  85.6410000 145.0940000  74.2770000  86.6180000 143.9970000
  68.0650000  39.0530000 129.6450000  68.6170000  38.9100000 130.4140000
  68.5880000  39.6190000 129.0760000  41.6330000  83.2450000 129.8840000
  40.7810000  83.6440000 129.7060000  41.7580000  82.6190000 129.1700000
  81.0700000  81.4760000 160.1710000  81.8130000  81.8150000 160.6690000
  81.2320000  80.5340000 160.1100000  85.4410000  68.9140000 159.1210000
  86.2110000  68.3470000 159.1660000  85.6950000  69.7020000 159.6020000
  70.1000000  56.5180000 140.4360000  69.8640000  55.7680000 139.8910000
  69.3260000  56.6730000 140.9790000  74.4420000  88.5040000 145.8650000
  74.9260000  89.0000000 145.2050000  73.5210000  88.6430000 145.6420000
  76.9220000  86.8950000 139.2230000  76.0210000  86.6290000 139.0400000
  77.3290000  86.1180000 139.6060000  47.5040000  60.9390000 159.0070000
  47.7500000  60.0720000 158.6840000  46.5610000  60.9940000 158.8540000
  31.4980000  73.7770000 143.7480000  31.0000000  73.6170000 142.9460000
  31.0000000  73.3280000 144.4330000  67.1100000  34.1830000 134.3810000
  66.2670000  34.1940000 134.8340000  67.6570000  33.6000000 134.9080000
  69.2400000  86.7390000 163.4490000  70.0030000  86.5460000 163.9940000
  68.6860000  87.2940000 164.0000000  31.0080000  58.0820000 142.4620000
  31.8490000  57.6430000 142.3430000  31.2270000  58.9090000 142.8930000
  40.4260000  58.7640000 134.5560000  39.9830000  59.5970000 134.3940000
  40.6040000  58.4140000 133.6830000  49.5660000  70.8750000 133.3860000
  49.7100000  70.1490000 132.7790000  49.7040000  71.6610000 132.8570000
  77.6860000  88.8920000 132.2530000  78.4540000  89.0000000 132.8150000
  76.9400000  88.9950000 132.8440000  68.3700000  52.0380000 163.9990000
  67.6380000  52.6550000 164.0000000  67.9550000  51.1740000 163.9920000
  33.2790000  69.3540000 155.4060000  34.1460000  69.4500000 155.0120000
  32.8460000  68.6870000 154.8720000  61.2020000  40.7830000 143.6620000
  61.3290000  39.9240000 144.0640000  61.1980000  41.3940000 144.3980000
  75.6780000  40.3270000 153.6900000  74.9990000  41.0000000 153.7170000
  76.0460000  40.3220000 154.5740000  53.4340000  58.1950000 123.9810000
  53.4850000  59.0210000 123.5000000  52.6570000  58.2870000 124.5330000
  74.4460000  88.4470000 160.5250000  73.6920000  89.0000000 160.3220000
  75.0100000  89.0000000 161.0660000  53.0040000  64.0500000 123.9460000
  52.8210000  63.3300000 124.5490000  53.1740000  64.8020000 124.5140000
  51.7350000  81.5860000 142.7010000  50.8380000  81.3210000 142.4990000
  51.7640000  82.5190000 142.4860000  65.0240000  62.9050000 149.2160000
  65.0530000  63.8610000 149.2520000  65.8930000  62.6280000 149.5080000
  46.9410000  49.8600000 150.5420000  47.8760000  49.6850000 150.4350000
  46.6680000  50.2290000 149.7020000  34.2510000  88.6040000 125.7870000
  34.3480000  87.6760000 126.0010000  33.5360000  88.9050000 126.3490000
  73.9520000  58.8950000 146.9520000  73.0260000  58.6710000 146.8580000
  74.2550000  58.3600000 147.6860000  75.5110000  45.6560000 128.2090000
  75.0630000  45.5990000 127.3640000  76.0120000  46.4700000 128.1610000
  53.8960000  34.8260000 154.6460000  53.6710000  35.5300000 154.0390000
  54.5020000  34.2700000 154.1550000  72.8660000  40.6730000 147.1910000
  72.9030000  40.8110000 148.1380000  73.7760000  40.7390000 146.9030000
  76.4550000  63.1180000 128.1180000  76.0410000  63.9740000 128.0130000
  77.3930000  63.3080000 128.1550000  67.4850000  46.6480000 163.5190000
  68.0240000  46.0210000 164.0000000  66.6550000  46.6660000 163.9950000
  57.3350000  53.5710000 134.0610000  58.1800000  54.0130000 133.9820000
  56.6910000  54.2800000 134.0340000  42.5140000  33.2350000 123.5000000
  41.8940000  32.5160000 123.6190000  41.9720000  34.0240000 123.5110000
  45.0730000  86.3280000 147.5770000  44.4730000  86.8540000 148.1040000
  44.9050000  85.4260000 147.8510000  31.4950000  82.5140000 148.2360000
  31.3770000  82.2530000 147.3230000  31.9910000  83.3320000 148.1900000
  81.5720000  47.0630000 139.2070000  82.4530000  46.7210000 139.0580000
  81.0310000  46.2840000 139.3370000  86.3680000  65.6600000 134.9860000
  86.6080000  66.5870000 134.9670000  87.2050000  65.1970000 135.0350000
  52.2120000  86.1370000 137.1020000  51.4570000  85.5780000 137.2890000
  52.5780000  85.7830000 136.2910000  48.6930000  52.7940000 160.3510000
  49.3280000  52.3420000 159.7960000  47.9280000  52.2180000 160.3600000
  74.1680000  68.7980000 123.5000000  73.2900000  68.4170000 123.5000000
  74.7580000  68.0440000 123.5000000  41.9390000  35.5740000 144.9220000
  41.6350000  34.8400000 145.4540000  41.5650000  35.4150000 144.0550000
  45.8700000  65.3530000 148.2720000  45.8200000  66.1960000 148.7210000
  45.1710000  65.3870000 147.6180000  51.0220000  32.1530000 134.8390000
  50.9840000  32.7580000 134.0990000  51.2230000  32.7090000 135.5930000
  71.8270000  39.9140000 130.7530000  72.4270000  40.6160000 130.5030000
  71.1610000  39.9110000 130.0660000  74.9210000  49.7690000 163.9940000
  75.3860000  49.9220000 163.1720000  74.1380000  49.2790000 163.7390000
  42.0990000  79.1660000 151.9800000  42.8970000  78.6630000 152.1400000
  41.4110000  78.5050000 151.8980000  38.0670000  31.8660000 143.4230000
  37.6730000  31.0000000 143.3180000  37.3300000  32.4410000 143.6330000
  84.3560000  75.2950000 123.5020000  84.3490000  74.3380000 123.5010000
  83.4310000  75.5420000 123.5000000  72.3460000  53.5530000 131.3710000
  72.0660000  54.4660000 131.3080000  73.2720000  53.5690000 131.1270000
  55.7330000  78.2230000 140.3320000  55.5420000  78.0870000 139.4040000
  54.9350000  77.9480000 140.7840000  62.2380000  79.3500000 151.6970000
  62.2470000  79.5290000 152.6370000  63.1160000  79.0170000 151.5080000
  78.8100000  80.7160000 142.1270000  79.2940000  79.9900000 142.5190000
  78.3690000  80.3300000 141.3700000  72.7310000  84.5350000 160.0240000
  72.4020000  84.2550000 160.8780000  72.6680000  85.4900000 160.0440000
  36.6510000  31.0000000 135.9460000  35.7110000  31.0670000 136.1100000
  37.0480000  31.0190000 136.8170000  44.0560000  31.0150000 151.3900000
  44.7520000  31.4720000 150.9180000  44.2940000  31.1060000 152.3140000
  78.6500000  56.2950000 160.1570000  77.7450000  56.3350000 159.8510000
  78.7820000  57.1200000 160.6240000  34.3770000  44.2950000 163.5010000
  34.1340000  44.0740000 162.6020000  33.5650000  44.1970000 163.9990000
  43.2580000  61.3490000 158.0700000  43.7520000  62.0740000 158.4510000
  42.3420000  61.6210000 158.1360000  52.9910000  74.7470000 152.8200000
  53.3460000  75.5980000 153.0760000  52.9740000  74.2400000 153.6320000
  85.9250000  45.7360000 125.3980000  86.7860000  45.3450000 125.2520000
  85.3050000  45.0650000 125.1120000  54.0300000  36.4460000 127.4180000
  53.4330000  36.7430000 128.1050000  53.4960000  36.4390000 126.6230000
  49.6730000  66.6360000 140.0110000  49.5380000  67.5680000 140.1820000
  50.1140000  66.6090000 139.1620000  73.2700000  49.5520000 157.3020000
  72.6080000  49.8350000 156.6730000  73.0390000  48.6440000 157.5030000
  49.6420000  55.0180000 158.7870000  48.7220000  54.9160000 159.0300000
  49.6660000  55.8240000 158.2710000  79.9510000  31.1680000 133.5720000
  80.7790000  31.0040000 134.0220000  80.1420000  31.0000000 132.6490000
  42.6100000  36.6000000 123.5420000  43.4150000  36.0840000 123.5000000
  42.9080000  37.5100000 123.5410000  50.3800000  68.5940000 161.6370000
  49.6150000  68.0200000 161.6610000  50.0220000  69.4660000 161.4670000
  71.0330000  62.7520000 146.5320000  71.2440000  62.5710000 147.4480000
  71.7800000  63.2570000 146.2090000  64.3970000  43.9380000 131.4790000
  65.3470000  44.0480000 131.4480000  64.1660000  43.6020000 130.6130000
  45.8190000  63.1460000 145.1230000  46.7020000  63.0490000 144.7660000
  45.8900000  63.8710000 145.7450000  60.2570000  68.8790000 125.9220000
  60.2340000  69.7740000 125.5850000  59.4110000  68.5060000 125.6710000
  73.9480000  62.2850000 133.3600000  74.8890000  62.1920000 133.5060000
  73.5780000  61.4470000 133.6390000  49.7940000  60.5790000 148.7740000
  48.8870000  60.8300000 148.9490000  49.7250000  59.7670000 148.2700000
  50.6480000  50.6860000 152.0410000  50.7000000  51.0820000 151.1710000
  50.9930000  49.8000000 151.9220000  58.0440000  69.0470000 123.5780000
  57.1390000  68.7450000 123.5000000  57.9830000  70.0020000 123.5450000
  36.3990000  82.6350000 163.0470000  35.9920000  83.4650000 162.8030000
  36.5260000  82.6990000 163.9940000  37.4100000  64.0980000 159.2000000
  36.8010000  63.8500000 158.5050000  37.4460000  63.3310000 159.7720000
  84.8320000  66.6680000 154.1750000  84.8850000  67.6030000 154.3730000
  85.4010000  66.2540000 154.8240000  42.4550000  45.7370000 127.0710000
  42.4240000  45.0170000 126.4410000  41.7440000  45.5500000 127.6840000
  51.4680000  39.2280000 123.5000000  51.0470000  38.3690000 123.5030000
  52.4060000  39.0360000 123.5420000  55.8340000  36.3930000 158.0600000
  54.9270000  36.5360000 157.7890000  56.3580000  36.7630000 157.3490000
  31.1720000  34.2680000 156.1820000  31.0450000  34.5800000 155.2860000
  32.0720000  33.9420000 156.1970000  70.5380000  68.0220000 140.6860000
  69.6250000  67.8250000 140.4810000  70.9540000  67.1640000 140.7800000
  61.0500000  47.6270000 164.0000000  60.7060000  48.5200000 163.9790000
  60.2710000  47.0700000 164.0000000  49.0300000  76.8460000 134.2800000
  48.9430000  77.1500000 135.1840000  48.8570000  75.9050000 134.3260000
  36.8660000  76.1790000 163.1020000  37.6910000  75.7230000 163.2630000
  36.1940000  75.5850000 163.4370000  81.4440000  60.1960000 149.8090000
  81.9750000  60.0080000 149.0350000  82.0510000  60.6110000 150.4220000
  77.3470000  86.3320000 127.1390000  78.0870000  86.8090000 127.5150000
  77.3960000  86.5160000 126.2000000  31.0000000  66.5350000 163.9710000
  31.8230000  66.0470000 164.0000000  31.2420000  67.3940000 163.6230000
  55.5450000  39.7100000 147.5040000  54.6690000  39.4360000 147.2300000
  55.9540000  38.9090000 147.8350000  88.6130000  52.1530000 157.9420000
  89.0000000  52.0930000 158.8150000  88.9930000  51.4180000 157.4590000
  44.8060000  80.2170000 128.1090000  45.1040000  79.3660000 127.7910000
  43.8520000  80.1840000 128.0270000  40.5270000  84.0880000 135.4060000
  41.4080000  84.4600000 135.3610000  40.6670000  83.1610000 135.5990000
  37.2870000  52.6010000 129.2810000  38.1860000  52.3410000 129.0800000
  36.9370000  51.8750000 129.7980000  76.1960000  41.2960000 162.2390000
  75.4670000  41.7730000 161.8420000  76.8990000  41.9430000 162.3030000
  31.3550000  88.9960000 141.4060000  31.0000000  89.0000000 140.5170000
  31.0010000  88.2000000 141.8020000  57.2800000  74.8430000 158.3160000
  56.6960000  75.5990000 158.2670000  56.6920000  74.0900000 158.3780000
  83.5430000  61.6820000 148.0130000  83.7240000  62.3610000 147.3630000
  84.3960000  61.2820000 148.1850000  86.5160000  52.3710000 135.4400000
  86.0760000  52.6690000 134.6440000  86.0380000  52.7970000 136.1520000
  78.8460000  47.1920000 140.9930000  78.6570000  48.1260000 140.9130000
  79.6200000  47.1510000 141.5560000  45.3750000  53.4400000 129.3480000
  45.7500000  53.8500000 130.1270000  45.3800000  54.1330000 128.6870000
  44.3240000  84.4420000 153.7410000  44.5450000  85.2530000 154.1980000
  43.5870000  84.6770000 153.1760000  43.0250000  83.4430000 140.2250000
  43.0840000  82.9970000 139.3810000  43.5350000  84.2450000 140.1090000
  69.3000000  33.9520000 159.4440000  69.1420000  34.8960000 159.4400000
  68.6030000  33.5940000 159.9930000  85.4430000  70.9370000 157.3370000
  86.3240000  71.3040000 157.4070000  84.9050000  71.6630000 157.0200000
  68.2400000  54.4060000 141.2190000  68.9860000  53.9900000 141.6500000
  67.5040000  53.8190000 141.3940000  54.0290000  88.5790000 136.0800000
  53.1780000  89.0000000 136.2070000  54.0090000  87.8180000 136.6610000
  70.2560000  66.3050000 144.9860000  69.9360000  66.1400000 144.1000000
  70.0720000  67.2320000 145.1390000  43.3400000  67.7180000 138.4910000
  42.3870000  67.8010000 138.4780000  43.5000000  66.7760000 138.4350000
  75.6900000  65.3130000 125.3030000  75.3220000  64.7310000 124.6380000
  75.3930000  66.1860000 125.0480000  46.4740000  41.5340000 146.3120000
  45.6150000  41.1870000 146.0750000  46.4610000  42.4400000 146.0020000
  51.5450000  64.1000000 127.1060000  51.0770000  63.9620000 126.2820000
  52.4530000  64.2520000 126.8430000  57.3320000  54.0310000 141.2050000
  56.8500000  54.7700000 141.5770000  56.8410000  53.7970000 140.4170000
  42.7580000  41.3900000 151.4110000  43.7010000  41.3030000 151.2710000
  42.5470000  42.2650000 151.0840000  71.1440000  50.8110000 145.9800000
  71.9610000  51.2930000 145.8530000  71.2630000  50.3520000 146.8120000
  79.8790000  83.4050000 164.0000000  80.8240000  83.2870000 163.9000000
  79.6390000  84.0230000 163.3090000  76.9840000  88.9390000 152.3770000
  77.9300000  89.0000000 152.5050000  76.8030000  87.9990000 152.3670000
  51.4720000  67.0230000 156.2190000  52.0380000  66.2880000 156.4530000
  50.6700000  66.6150000 155.8920000  65.8610000  79.5830000 160.4800000
  65.9080000  79.2120000 159.5990000  64.9340000  79.5300000 160.7130000
  48.4610000  39.7070000 141.4810000  48.6930000  40.3670000 140.8280000
  48.6980000  38.8730000 141.0730000  58.8740000  40.2810000 152.5780000
  59.5130000  40.4300000 151.8820000  59.4030000  40.0860000 153.3520000
  60.1940000  42.0740000 163.2530000  59.9030000  41.9390000 162.3510000
  60.7040000  41.2900000 163.4600000  79.2580000  58.0880000 127.5610000
  78.5890000  58.7300000 127.8000000  79.7940000  58.5340000 126.9040000
  89.0000000  54.5770000 126.6330000  88.1890000  54.9240000 127.0050000
  88.8270000  54.5160000 125.6940000  31.0480000  48.0670000 152.9750000
  31.7130000  47.9780000 152.2920000  31.0000000  47.1990000 153.3770000
  76.8080000  81.2850000 139.6190000  77.6630000  81.6210000 139.3490000
  76.5310000  81.8720000 140.3230000  50.7690000  58.9320000 160.8270000
  49.9950000  59.4940000 160.8100000  50.4190000  58.0410000 160.8290000
  49.4590000  59.0090000 134.6870000  49.4570000  59.7290000 135.3170000
  49.2530000  59.4230000 133.8490000  71.3330000  37.1980000 158.7130000
  71.9070000  36.4450000 158.8550000  70.5170000  36.9640000 159.1560000
  39.1230000  72.1960000 158.9150000  40.0740000  72.0910000 158.9040000
  38.7840000  71.3010000 158.9460000  58.1190000  63.2560000 132.9710000
  58.8130000  63.8910000 133.1480000  57.3560000  63.7910000 132.7500000
  68.0400000  58.1080000 130.5400000  67.3430000  58.7590000 130.6240000
  68.6640000  58.5020000 129.9300000  59.3660000  66.3840000 150.7490000
  59.0040000  67.2680000 150.8030000  58.7610000  65.9110000 150.1770000
  88.3700000  62.8040000 127.1760000  89.0000000  63.3460000 127.6510000
  87.5680000  62.8560000 127.6980000  53.0160000  56.8590000 131.0960000
  52.3420000  56.1800000 131.0770000  53.5770000  56.6610000 130.3460000
  42.9730000  64.1430000 156.9660000  42.4280000  63.5100000 156.4980000
  43.8710000  63.8970000 156.7440000  79.3280000  33.5870000 128.8630000
  80.1820000  33.6400000 128.4340000  79.4880000  33.8970000 129.7550000
  71.2920000  53.6380000 161.4950000  71.7270000  54.0540000 162.2390000
  71.2220000  52.7160000 161.7440000  76.6150000  73.2150000 155.4620000
  75.7790000  73.0530000 155.8990000  76.7630000  72.4330000 154.9300000
  76.9090000  75.3890000 158.1740000  76.6350000  74.6760000 157.5980000
  76.2630000  75.3880000 158.8800000  59.4380000  64.0740000 127.0560000
  58.6980000  64.6700000 126.9420000  59.8320000  64.3380000 127.8880000
  56.3400000  47.1710000 124.2420000  56.6420000  47.6950000 123.5000000
  55.9170000  46.4110000 123.8430000  55.0720000  47.2730000 133.1120000
  55.1660000  48.1020000 132.6430000  55.6990000  47.3320000 133.8330000
  75.1910000  43.0400000 134.1180000  76.1350000  43.1480000 134.2330000
  74.8630000  43.9280000 133.9780000  56.5310000  77.3300000 128.5180000
  55.9360000  78.0760000 128.4530000  56.5940000  76.9950000 127.6230000
  81.8000000  41.0120000 142.2220000  81.6460000  40.1000000 141.9780000
  81.0290000  41.2560000 142.7360000  63.5550000  37.8280000 132.2270000
  63.3040000  36.9070000 132.1660000  62.7290000  38.2950000 132.3550000
  66.3160000  45.9170000 136.5880000  65.6480000  46.5340000 136.2900000
  66.8900000  45.8000000 135.8310000  71.9970000  52.6560000 134.0690000
  72.8440000  52.9670000 133.7490000  71.8410000  53.1630000 134.8660000
  39.2690000  61.4960000 148.0010000  39.4410000  60.7610000 147.4130000
  38.4860000  61.2360000 148.4880000  63.3920000  46.4880000 161.8120000
  64.0680000  46.6020000 162.4800000  62.6470000  46.9940000 162.1370000
  60.0860000  61.6680000 125.3220000  60.2650000  61.6300000 126.2620000
  60.4830000  62.4910000 125.0360000  69.9470000  52.3900000 144.4510000
  69.2020000  52.5360000 145.0340000  69.6530000  51.7030000 143.8520000
  70.4060000  64.3460000 128.5410000  71.0190000  64.2140000 129.2640000
  69.7700000  64.9780000 128.8770000  41.0090000  83.3130000 132.3100000
  41.6620000  84.0030000 132.4210000  40.1930000  83.7810000 132.1320000
  68.7990000  69.9890000 151.4200000  69.4250000  70.5220000 150.9310000
  69.2640000  69.7470000 152.2220000  60.4560000  80.3220000 128.7750000
  60.2670000  80.5620000 129.6820000  61.0050000  81.0350000 128.4470000
  75.2060000  47.6830000 160.5940000  75.5720000  47.7870000 161.4720000
  75.9700000  47.6500000 160.0170000  74.2630000  31.0000000 135.3350000
  73.5580000  31.0850000 135.9770000  75.0260000  31.3880000 135.7650000
  84.9660000  63.0810000 153.2420000  85.5250000  62.3240000 153.0710000
  85.5730000  63.7710000 153.5120000  84.7420000  39.5770000 146.2750000
  84.8940000  40.3930000 146.7510000  84.9970000  38.8890000 146.8900000
  61.4730000  44.2480000 124.6360000  60.9330000  44.8920000 125.0940000
  61.4340000  44.5130000 123.7160000  60.4750000  32.9460000 149.0870000
  61.1170000  33.5940000 148.7980000  60.1940000  33.2540000 149.9490000
  47.1420000  42.3480000 124.1140000  47.4090000  43.0460000 124.7110000
  46.5430000  42.7740000 123.5000000  77.5990000  64.4810000 153.0340000
  77.5050000  63.7170000 153.6030000  76.7010000  64.7660000 152.8640000
  34.6050000  79.8270000 163.8710000  33.7430000  80.2280000 163.9840000
  35.1410000  80.5180000 163.4790000  40.0140000  44.7820000 153.8500000
  39.7840000  45.6300000 154.2300000  40.9620000  44.8250000 153.7240000
  82.5860000  73.5310000 128.8040000  82.3220000  73.8280000 129.6750000
  83.5300000  73.6860000 128.7740000  35.6560000  88.1030000 160.5190000
  36.0030000  87.5610000 161.2270000  35.8770000  89.0000000 160.7740000
  42.2050000  86.0220000 144.0160000  41.9650000  85.1230000 144.2420000
  43.1190000  86.1030000 144.2920000  59.0650000  71.0990000 140.1030000
  58.8640000  71.8330000 140.6840000  59.4010000  70.4180000 140.6860000
  79.3990000  84.9590000 157.8970000  78.9730000  84.5810000 157.1290000
  80.3300000  84.9740000 157.6720000  47.1760000  38.2720000 138.8340000
  47.2060000  37.5600000 139.4730000  46.5800000  37.9590000 138.1540000
  51.3280000  66.7660000 136.2360000  52.2040000  66.9330000 135.8900000
  51.4730000  66.1990000 136.9950000  60.1200000  44.0740000 133.7250000
  60.1190000  43.3600000 133.0880000  59.8850000  44.8500000 133.2150000
  63.4830000  41.8880000 141.8790000  62.8820000  41.9190000 141.1350000
  63.9920000  42.6960000 141.8110000  87.4220000  42.5070000 161.1170000
  87.7720000  42.3150000 160.2480000  88.0110000  43.1740000 161.4710000
  63.4380000  69.2680000 131.5440000  63.8810000  68.9410000 130.7610000
  62.6370000  69.6750000 131.2150000  65.5660000  49.1090000 159.2640000
  66.5030000  49.1790000 159.4470000  65.1590000  49.0330000 160.1280000
  33.5780000  77.5420000 163.0960000  33.3050000  77.6960000 164.0000000
  33.1440000  78.2330000 162.5940000  33.8000000  40.0360000 131.4080000
  33.3360000  39.2220000 131.6030000  34.5240000  39.7690000 130.8400000
  85.4510000  50.4110000 163.9990000  86.4050000  50.3390000 163.9720000
  85.1410000  49.5050000 163.9760000  78.1480000  88.8250000 145.0250000
  77.3380000  88.9990000 144.5460000  77.9280000  89.0000000 145.9410000
  83.7110000  34.0200000 164.0000000  82.8630000  34.4620000 163.9850000
  83.8160000  33.6710000 163.1140000  37.5930000  47.7010000 159.5480000
  37.0870000  46.9460000 159.2490000  37.1370000  48.0000000 160.3340000
  45.8420000  77.8580000 123.5000000  45.3010000  78.6480000 123.5020000
  46.7420000  78.1840000 123.5000000  32.1820000  41.4330000 133.0090000
  32.5810000  40.7050000 133.4850000  32.9170000  42.0010000 132.7790000
  50.9590000  46.6950000 130.4230000  50.8440000  47.0110000 131.3190000
  50.0700000  46.6390000 130.0730000  75.6670000  54.3340000 134.2110000
  75.6910000  53.3770000 134.2240000  74.7700000  54.5480000 133.9560000
  40.3640000  43.6720000 131.6860000  41.0170000  42.9790000 131.5920000
  40.8710000  44.4480000 131.9260000  88.4730000  65.3860000 155.2070000
  89.0000000  65.9080000 155.8120000  87.8900000  66.0200000 154.7890000
  33.1940000  38.8070000 126.7420000  32.7340000  38.1070000 126.2790000
  32.5560000  39.1330000 127.3770000  63.0720000  61.4550000 132.9490000
  63.8910000  61.9430000 133.0270000  63.3430000  60.5370000 132.9060000
  61.5090000  65.1500000 137.2880000  61.9140000  66.0160000 137.2430000
  62.1540000  64.6070000 137.7420000  41.1080000  46.9440000 163.9920000
  40.3140000  46.4110000 163.9550000  41.8230000  46.3080000 164.0000000
  68.2700000  70.4820000 157.8130000  67.5060000  69.9990000 158.1260000
  68.9580000  69.8200000 157.7350000  38.1840000  83.3920000 125.1810000
  38.1140000  84.0700000 125.8540000  37.9370000  82.5830000 125.6290000
  55.1010000  31.5910000 150.9390000  55.9070000  31.0760000 150.9280000
  54.4430000  31.0000000 151.3060000  46.5200000  74.4360000 144.8070000
  46.2280000  74.6560000 145.6910000  45.8080000  74.7310000 144.2390000
  54.4380000  58.8110000 133.8680000  54.2910000  59.6970000 133.5380000
  55.1650000  58.9020000 134.4850000  86.2320000  78.5020000 161.4760000
  87.1100000  78.1240000 161.5150000  86.3800000  79.4420000 161.3710000
  86.8280000  78.8920000 139.6580000  86.3830000  78.0870000 139.3950000
  86.3220000  79.2130000 140.4040000  68.5580000  36.9140000 144.7230000
  68.6820000  35.9730000 144.8480000  69.1280000  37.3210000 145.3750000
  55.1950000  73.6950000 135.7990000  54.4610000  73.1250000 136.0290000
  55.9420000  73.3250000 136.2710000  63.2630000  86.5500000 159.8140000
  63.7290000  86.7010000 160.6360000  62.6270000  85.8650000 160.0210000
  42.0290000  59.5600000 130.2990000  42.6150000  59.3290000 129.5790000
  42.5920000  60.0040000 130.9340000  83.6940000  65.7490000 157.6590000
  82.8000000  65.9760000 157.4050000  84.2480000  66.2270000 157.0420000
  82.0690000  49.8180000 145.8060000  82.2290000  50.5250000 145.1820000
  82.0990000  49.0200000 145.2780000  46.1030000  40.0920000 156.8080000
  46.9130000  39.5970000 156.6800000  45.4150000  39.4260000 156.8240000
  45.4860000  44.6900000 144.0050000  46.4070000  44.5060000 144.1910000
  45.0280000  43.8820000 144.2350000  39.5950000  71.5920000 148.5680000
  39.7550000  70.6550000 148.4560000  38.6730000  71.6500000 148.8180000
  72.5820000  56.8470000 143.1150000  71.7130000  57.2220000 142.9690000
  73.1850000  57.5790000 142.9820000  85.4450000  48.3550000 142.8440000
  85.0150000  48.7420000 143.6060000  84.8720000  48.5750000 142.1080000
  71.9690000  68.7330000 161.4440000  71.9170000  67.7780000 161.4010000
  71.3860000  68.9730000 162.1640000  74.2510000  79.7850000 161.9790000
  73.8020000  78.9420000 161.9230000  75.1820000  79.5600000 162.0040000
  36.7870000  78.1040000 150.4180000  36.1280000  78.2030000 151.1040000
  36.3140000  78.2760000 149.6030000  75.4810000  41.8940000 156.7190000
  74.9640000  42.1270000 155.9480000  75.1320000  42.4480000 157.4190000
  34.7480000  59.3100000 143.1890000  35.5160000  58.7870000 142.9630000
  34.0830000  59.0480000 142.5510000  31.0060000  66.1890000 154.7480000
  31.0000000  66.9750000 154.2020000  31.0040000  66.5200000 155.6460000
  40.0110000  48.4960000 144.7150000  40.1770000  49.4060000 144.9630000
  39.0570000  48.4110000 144.7390000  86.9520000  53.6150000 146.9460000
  87.0380000  52.8890000 146.3280000  87.0430000  53.2080000 147.8080000
  36.4790000  46.6010000 131.7140000  36.0300000  46.8160000 130.8970000
  36.5610000  47.4390000 132.1710000  41.6350000  89.0000000 126.7890000
  42.3410000  88.6430000 127.3270000  41.3200000  88.2530000 126.2800000
  54.8600000  33.0680000 147.4890000  55.3790000  32.8880000 148.2720000
  55.1640000  32.4260000 146.8470000  35.5820000  76.6290000 161.0040000
  34.6530000  76.4190000 161.0950000  35.6030000  77.5790000 160.8830000
  40.8120000  73.8640000 144.9390000  40.0120000  74.1620000 144.5060000
  40.5920000  72.9980000 145.2800000  89.0000000  43.7600000 148.7370000
  88.5760000  43.7340000 149.5940000  88.2950000  43.5820000 148.1140000
  87.5530000  79.1000000 148.9400000  86.9850000  79.8540000 148.7800000
  86.9510000  78.3870000 149.1520000  39.3870000  66.3420000 125.9480000
  38.6460000  66.9320000 125.8150000  39.4470000  66.2440000 126.8990000
  85.3700000  33.1320000 158.4950000  85.5270000  32.2160000 158.7230000
  84.6770000  33.0990000 157.8350000  51.6370000  72.0430000 127.0760000
  51.1010000  72.8290000 126.9730000  51.0100000  71.3190000 127.0440000
  85.3880000  57.3390000 132.5500000  85.9520000  57.8290000 131.9520000
  84.7890000  57.9950000 132.9070000  87.6180000  82.3530000 161.9750000
  86.7030000  82.1400000 161.7910000  88.0950000  81.5450000 161.7850000
  45.9440000  60.1970000 140.6110000  46.4820000  60.9250000 140.9200000
  46.5080000  59.4280000 140.6990000  62.4300000  85.6990000 156.1550000
  62.9660000  86.1960000 156.7730000  62.5910000  84.7820000 156.3820000
  76.2090000  50.9660000 157.8600000  75.3430000  50.9610000 158.2680000
  76.4870000  51.8820000 157.8980000  48.9740000  66.4220000 147.5070000
  48.4550000  65.6760000 147.8070000  48.8540000  67.0860000 148.1860000
  43.8860000  72.4310000 145.5690000  44.7690000  72.6660000 145.2850000
  43.4660000  73.2690000 145.7640000  41.9020000  77.1270000 163.5810000
  42.5900000  76.5530000 163.9170000  41.1140000  76.5830000 163.5820000
  85.9100000  71.4380000 134.3010000  86.1760000  72.3530000 134.2140000
  85.5830000  71.2000000 133.4330000  42.9540000  74.8730000 149.0090000
  42.5970000  74.4000000 148.2570000  43.2160000  75.7230000 148.6550000
  81.3020000  53.5120000 135.1950000  81.3030000  53.3510000 134.2520000
  81.9810000  52.9320000 135.5390000  66.2190000  60.9980000 138.8010000
  65.9520000  61.9090000 138.6840000  66.0360000  60.8110000 139.7230000
  64.4940000  40.9820000 144.7720000  63.6520000  40.9210000 144.3230000
  64.3040000  41.4710000 145.5730000  76.7480000  81.7370000 131.2890000
  76.0470000  81.6720000 130.6400000  76.4960000  82.4790000 131.8400000
  49.8510000  31.6670000 131.7260000  49.6420000  31.0000000 131.0730000
  50.7710000  31.5110000 131.9420000  73.9400000  37.2420000 156.5210000
  73.7440000  37.3890000 157.4460000  73.6310000  36.3530000 156.3480000
  39.1940000  35.9950000 158.5340000  39.8810000  35.3450000 158.3890000
  39.4950000  36.4980000 159.2910000  61.1840000  52.6490000 146.9760000
  61.0680000  51.7020000 146.9010000  60.5900000  52.9080000 147.6810000
  37.4410000  31.1520000 146.2420000  37.6560000  32.0780000 146.1330000
  36.6550000  31.0230000 145.7100000  75.1100000  61.5960000 145.3760000
  75.0290000  61.0100000 146.1290000  74.7650000  62.4340000 145.6870000
  48.1920000  44.9100000 142.1500000  48.8310000  45.5480000 141.8310000
  48.7010000  44.3180000 142.7040000  34.4610000  77.5150000 156.0020000
  34.8320000  77.8130000 156.8320000  33.9480000  76.7400000 156.2330000
  88.4140000  72.8090000 129.9190000  88.9990000  72.0960000 129.6640000
  89.0000000  73.5040000 130.2190000  86.2420000  79.8620000 132.6320000
  85.3510000  80.1030000 132.3780000  86.5490000  80.6000000 133.1590000
  85.5740000  39.7150000 152.2960000  86.1340000  39.3190000 152.9640000
  85.1530000  38.9710000 151.8640000  68.9030000  57.5570000 135.4120000
  68.9920000  56.7760000 135.9570000  68.9020000  58.2850000 136.0340000
  58.7860000  56.4610000 155.0350000  58.4290000  56.7230000 155.8840000
  58.4070000  55.5970000 154.8720000  58.8260000  86.3810000 134.8950000
  59.0580000  87.2790000 134.6580000  58.0570000  86.4730000 135.4580000
  61.6680000  76.3120000 128.6610000  62.4560000  76.1400000 128.1460000
  61.8760000  75.9820000 129.5360000  64.9590000  80.8340000 129.7690000
  64.3970000  81.6070000 129.7220000  65.8400000  81.1850000 129.9050000
  41.9730000  88.9690000 141.1780000  42.1620000  89.0000000 142.1160000
  41.0160000  88.9810000 141.1260000  36.4820000  66.1730000 157.3090000
  36.8190000  66.9380000 156.8410000  36.3180000  65.5260000 156.6230000
  61.5110000  36.5990000 153.7650000  61.6040000  35.9170000 154.4310000
  61.9530000  36.2430000 152.9940000  75.0450000  56.8370000 136.0820000
  75.1000000  55.8820000 136.0900000  75.9560000  57.1290000 136.0430000
  36.3630000  42.4030000 131.9020000  35.8120000  41.9740000 131.2470000
  36.0090000  43.2910000 131.9680000  51.1760000  47.8760000 158.1940000
  50.5550000  47.4660000 157.5920000  50.9540000  47.5120000 159.0520000
  41.9090000  31.0000000 154.8130000  42.5500000  31.1130000 154.1120000
  41.0610000  31.0110000 154.3680000  61.3230000  66.5180000 143.4660000
  62.0120000  66.0690000 142.9770000  61.7830000  67.1980000 143.9590000
  33.3520000  58.1910000 156.7900000  33.1200000  58.8030000 157.4880000
  33.1780000  57.3260000 157.1620000  88.4650000  70.0300000 161.1790000
  87.7970000  69.3960000 160.9200000  88.9550000  69.5930000 161.8750000
  69.2980000  62.3570000 144.2470000  68.9670000  62.0390000 143.4070000
  70.2000000  62.0370000 144.2860000  49.5910000  82.5860000 157.0570000
  48.9120000  82.4160000 156.4050000  50.4080000  82.5870000 156.5570000
  66.9390000  45.9790000 132.5260000  66.0140000  46.0720000 132.7550000
  67.3800000  45.8370000 133.3640000  82.5210000  52.2050000 149.1900000
  83.3680000  52.6230000 149.0340000  82.5720000  51.3750000 148.7140000
  86.7760000  83.0400000 153.4460000  86.7860000  82.2960000 152.8440000
  86.9500000  82.6570000 154.3050000  59.9440000  72.3990000 147.3650000
  59.5390000  72.2150000 146.5180000  60.0700000  71.5370000 147.7630000
  31.0000000  64.4390000 144.7410000  31.1670000  65.0570000 145.4520000
  31.1360000  63.5770000 145.1350000  54.5780000  71.8920000 153.5810000
  53.9990000  71.7040000 152.8420000  54.8780000  71.0310000 153.8750000
  78.8980000  34.6920000 126.2260000  79.5980000  34.5770000 125.5830000
  78.6460000  33.8000000 126.4670000  38.8320000  70.0160000 145.0900000
  38.3700000  69.2440000 144.7650000  39.7550000  69.7590000 145.0950000
  34.1310000  43.0000000 159.4240000  34.0010000  43.7840000 159.9570000
  34.1630000  42.2820000 160.0570000  54.2680000  70.5690000 131.3950000
  53.3630000  70.2900000 131.2570000  54.3660000  70.6020000 132.3470000
  64.5030000  55.4800000 164.0000000  64.0920000  55.1130000 163.2180000
  65.3900000  55.1180000 163.9970000  72.1260000  77.3960000 141.9230000
  71.1930000  77.1830000 141.9490000  72.1870000  78.1330000 141.3140000
  78.9390000  56.3240000 142.8700000  78.2730000  56.5550000 142.2220000
  78.4910000  56.3990000 143.7130000  31.1720000  77.8780000 123.6040000
  31.9940000  77.3990000 123.5000000  31.0000000  77.8590000 124.5450000
  31.0340000  75.3680000 155.0550000  31.0000000  75.2410000 154.1070000
  31.9280000  75.6660000 155.2260000  45.6450000  49.4480000 157.5940000
  46.2010000  49.8940000 158.2330000  46.2320000  48.8310000 157.1560000
  45.5720000  71.5530000 160.1160000  46.4650000  71.8230000 160.3310000
  45.1970000  71.2760000 160.9520000  43.0900000  63.4220000 123.5000000
  42.9800000  62.6060000 123.9880000  44.0230000  63.6220000 123.5720000
  88.5460000  51.7660000 129.8880000  87.6730000  51.3740000 129.8800000
  88.9710000  51.4200000 129.1030000  62.9710000  69.6160000 136.9070000
  62.2010000  70.1060000 136.6200000  63.3850000  69.3210000 136.0950000
  56.8570000  31.0000000 131.8740000  56.9590000  31.9180000 131.6230000
  56.2140000  31.0160000 132.5840000  56.9690000  45.1860000 134.2650000
  56.0840000  44.8950000 134.4830000  57.4690000  45.0610000 135.0720000
  42.1040000  81.0740000 133.9780000  41.1950000  81.3660000 133.9210000
  42.0660000  80.1330000 133.8050000  51.5500000  47.6640000 123.5620000
  50.6730000  47.2850000 123.5080000  51.4000000  48.6090000 123.6100000
  54.6990000  67.8340000 163.0500000  55.2420000  68.6090000 162.9140000
  54.6800000  67.7170000 164.0000000  47.5940000  88.0650000 137.0450000
  47.7790000  88.9980000 136.9450000  46.7370000  88.0340000 137.4710000
  37.8070000  45.1140000 136.4120000  37.4900000  45.3060000 137.2940000
  38.0400000  44.1860000 136.4360000  39.0680000  86.3770000 137.2930000
  39.2190000  85.4690000 137.0280000  39.9220000  86.8000000 137.1980000
  79.1260000  44.4540000 130.7450000  79.8170000  43.7970000 130.6720000
  78.3200000  43.9460000 130.8410000  59.9470000  85.7920000 132.4340000
  59.2240000  85.9340000 131.8240000  60.5030000  86.5650000 132.3310000
  75.9430000  74.2880000 150.6780000  75.9300000  75.2450000 150.6530000
  76.7000000  74.0720000 151.2240000  43.2820000  46.1300000 131.8970000
  43.2480000  47.0500000 132.1590000  43.4570000  46.1540000 130.9560000
  42.0100000  50.1320000 137.6810000  41.1950000  49.6890000 137.9150000
  41.8980000  51.0270000 138.0030000  32.6510000  38.9610000 149.0660000
  33.0010000  39.2900000 149.8940000  33.1270000  39.4500000 148.3940000
  83.4340000  44.6770000 123.5000000  82.4960000  44.4840000 123.5000000
  83.8560000  43.8180000 123.5000000  41.0880000  60.4370000 144.1170000
  40.5350000  59.8800000 144.6640000  41.8630000  59.9050000 143.9380000
  33.9070000  49.8830000 154.0460000  33.8150000  50.5300000 153.3470000
  33.3300000  49.1650000 153.7840000  52.6090000  42.8400000 145.9430000
  52.4230000  42.2740000 145.1940000  52.7510000  42.2360000 146.6720000
  50.1840000  52.3810000 135.7320000  51.1210000  52.5760000 135.7600000
  49.7610000  53.2050000 135.9730000  66.2960000  54.7930000 155.2150000
  65.5850000  54.3250000 155.6530000  66.3750000  54.3650000 154.3620000
  58.4420000  36.4350000 152.0360000  59.1700000  35.8210000 152.1350000
  58.7320000  37.2260000 152.4920000  55.1380000  87.3900000 129.1320000
  55.0370000  86.9550000 129.9780000  55.2830000  88.3110000 129.3520000
  88.8620000  60.5220000 132.0750000  89.0000000  60.0360000 132.8880000
  89.0000000  59.8760000 131.3830000  71.8120000  37.4310000 131.0450000
  71.4710000  36.5440000 131.1560000  72.4300000  37.3610000 130.3170000
  55.9510000  49.6470000 145.2770000  55.7250000  48.7410000 145.0680000
  55.9570000  50.0950000 144.4310000  48.4180000  34.6320000 125.3730000
  49.1420000  34.0070000 125.3660000  47.6300000  34.0870000 125.3820000
  65.5540000  41.6330000 133.8020000  66.4750000  41.4770000 134.0090000
  65.5680000  42.0310000 132.9310000  41.2250000  76.7600000 137.9740000
  40.7000000  77.5360000 137.7820000  42.1300000  77.0450000 137.8440000
  62.6600000  79.3390000 126.7070000  63.4760000  79.7160000 126.3760000
  62.9240000  78.8300000 127.4730000  85.3530000  61.2520000 128.2350000
  85.4720000  61.9980000 128.8220000  86.2060000  60.8160000 128.2250000
  61.3740000  37.5530000 135.3830000  61.1220000  37.0510000 136.1580000
  62.0210000  37.0030000 134.9400000  84.1630000  67.5320000 136.6430000
  84.2440000  66.9210000 135.9110000  83.6970000  67.0370000 137.3180000
  66.8670000  50.1280000 127.2580000  66.0380000  50.6050000 127.2320000
  66.6170000  49.2180000 127.4200000  81.0710000  52.7320000 146.8800000
  82.0050000  52.7000000 146.6730000  80.7590000  51.8410000 146.7200000
  53.3910000  76.7980000 164.0000000  53.4780000  75.8450000 164.0000000
  52.4460000  76.9530000 164.0000000  81.9680000  49.0740000 125.0980000
  81.6330000  48.9740000 125.9890000  81.2650000  48.7420000 124.5380000
  77.3380000  60.5700000 128.9400000  77.1280000  59.8410000 129.5230000
  77.7170000  61.2360000 129.5150000  34.4230000  31.0360000 132.4440000
  33.8720000  31.8170000 132.4000000  34.7170000  31.0010000 133.3540000
  69.8240000  59.3790000 143.0190000  70.5130000  60.0200000 142.8430000
  69.8030000  58.8290000 142.2350000  42.2410000  75.3860000 126.5670000
  42.6240000  74.5510000 126.2980000  41.7770000  75.6990000 125.7900000
  71.2420000  82.5530000 128.2650000  71.5740000  83.3880000 127.9360000
  70.5550000  82.7960000 128.8860000  89.0000000  73.7730000 137.4270000
  88.7920000  74.5360000 137.9670000  88.9250000  73.0290000 138.0240000
  57.2730000  77.2660000 132.4600000  57.7410000  78.0910000 132.3340000
  57.9590000  76.6300000 132.6640000  36.4740000  63.3290000 128.2050000
  37.1130000  62.9890000 127.5800000  36.1520000  62.5540000 128.6660000
  83.2830000  52.3130000 124.4500000  83.1660000  52.3190000 123.5000000
  82.8240000  51.5260000 124.7440000  69.7740000  35.9790000 163.7000000
  70.5880000  36.4670000 163.8230000  70.0120000  35.0670000 163.8720000
  60.3660000  55.1980000 157.5480000  59.6700000  55.7820000 157.8470000
  60.7290000  55.6320000 156.7750000  31.7010000  61.7340000 126.0900000
  31.0000000  61.1710000 126.4180000  32.4360000  61.1390000 125.9390000
  42.9870000  44.8910000 142.8270000  43.1100000  43.9680000 142.6070000
  42.0390000  44.9910000 142.9200000  56.1690000  78.4480000 163.9050000
  56.1240000  78.5950000 162.9600000  56.1610000  77.4950000 164.0000000
  68.0340000  60.1900000 141.1080000  67.5980000  59.3400000 141.0410000
  67.6170000  60.6140000 141.8590000  52.7070000  49.8060000 127.5290000
  53.5410000  49.5600000 127.9280000  52.9150000  50.5690000 126.9900000
  73.9560000  85.1980000 155.3750000  73.8750000  86.1450000 155.4800000
  74.6150000  84.9400000 156.0200000  52.3730000  88.4430000 144.7140000
  51.9510000  89.0000000 144.0600000  53.0490000  89.0000000 145.1020000
  33.5470000  74.4860000 163.4140000  32.8030000  74.6260000 164.0000000
  34.2330000  74.1320000 163.9800000  66.6810000  78.1650000 143.6550000
  66.9060000  77.5530000 144.3560000  65.7840000  78.4370000 143.8530000
  72.2280000  60.4910000 149.0610000  73.1270000  60.8190000 149.0330000
  72.2640000  59.7470000 149.6620000  45.2210000  84.6120000 142.4320000
  45.2260000  83.6560000 142.4090000  44.2920000  84.8470000 142.4420000
  73.4290000  49.5050000 137.2980000  74.3140000  49.1400000 137.2800000
  73.5590000  50.4430000 137.4420000  39.9340000  74.1990000 162.4740000
  39.9870000  74.3580000 163.4160000  39.8000000  75.0660000 162.0910000
  59.0910000  88.5390000 123.9020000  59.8280000  89.0000000 123.5000000
  58.3150000  88.9340000 123.5050000  75.0870000  36.6690000 129.5360000
  75.8970000  36.5010000 130.0180000  74.7210000  35.8000000 129.3710000
  72.0270000  46.4800000 130.5900000  71.6520000  45.7290000 131.0500000
  71.3270000  46.7790000 130.0100000  68.2040000  83.3360000 152.6490000
  68.8100000  84.0450000 152.8640000  67.3470000  83.6610000 152.9270000
  32.5260000  45.0970000 157.0210000  33.1310000  44.5450000 157.5170000
  32.3520000  44.6020000 156.2200000  62.7250000  60.9330000 123.5080000
  63.0330000  60.0270000 123.5190000  61.7700000  60.8620000 123.5000000
  64.2600000  84.5410000 129.9930000  63.8240000  85.2560000 129.5320000
  63.5460000  84.0390000 130.3870000  83.9990000  52.2900000 127.0710000
  84.3100000  51.4440000 126.7520000  84.7320000  52.6400000 127.5780000
  69.8020000  58.6870000 124.3540000  70.3510000  58.6990000 123.5700000
  70.4230000  58.7070000 125.0820000  48.4710000  88.4320000 152.2560000
  47.7200000  89.0000000 152.4270000  49.2330000  89.0000000 152.3700000
  48.8760000  43.0150000 136.1010000  48.5170000  42.1290000 136.1330000
  49.0960000  43.1520000 135.1790000  55.9240000  72.5070000 131.4920000
  55.6360000  73.0200000 132.2460000  55.3220000  72.7540000 130.7890000
  49.0340000  88.8880000 131.4650000  49.0420000  89.0000000 130.5140000
  48.1160000  89.0000000 131.7130000  86.2100000  85.0100000 160.6930000
  85.5000000  84.3700000 160.7400000  86.9690000  84.5050000 160.3990000
  74.3350000  86.8610000 124.5540000  73.8580000  87.5100000 125.0710000
  74.3720000  87.2360000 123.6740000  62.7610000  31.0900000 148.3160000
  61.8100000  31.0000000 148.2630000  62.9270000  32.0110000 148.1130000
  78.1150000  80.1250000 152.3140000  78.8630000  80.5220000 152.7600000
  78.3950000  80.0450000 151.4020000  31.3370000  78.2580000 128.2400000
  31.0380000  79.1510000 128.4100000  31.0000000  78.0540000 127.3670000
  64.7170000  46.6210000 130.1580000  64.4820000  47.3200000 130.7680000
  65.5690000  46.8840000 129.8080000  53.9150000  80.2240000 164.0000000
  53.1090000  80.7370000 163.9460000  53.6390000  79.3250000 163.8210000
  33.2540000  38.1360000 123.5080000  33.8980000  38.8450000 123.5000000
  33.6540000  37.4540000 124.0480000  37.4890000  76.2560000 156.3140000
  36.6700000  76.1180000 156.7900000  37.3700000  77.0960000 155.8710000
  74.9600000  73.8210000 153.5820000  74.4380000  73.4470000 152.8720000
  75.0090000  74.7550000 153.3760000  56.2140000  36.7770000 128.5880000
  57.1530000  36.9520000 128.6460000  55.8020000  37.6300000 128.7270000
  35.6140000  65.4840000 139.5720000  35.8970000  65.8470000 140.4110000
  35.0210000  64.7700000 139.8070000  80.6320000  59.6440000 159.2920000
  79.9170000  59.0420000 159.4980000  80.2030000  60.4890000 159.1560000
  40.7780000  65.5440000 147.4950000  40.0350000  66.1460000 147.4640000
  40.3830000  64.6790000 147.6080000  72.8520000  67.1050000 138.2260000
  73.4630000  67.1640000 137.4920000  73.1740000  66.3680000 138.7460000
  88.5970000  80.7250000 155.2380000  88.5110000  79.8350000 154.8940000
  89.0000000  81.2200000 154.5240000  82.2320000  85.5930000 153.7300000
  82.5510000  86.4270000 154.0750000  81.7290000  85.2120000 154.4510000
  86.2040000  75.6110000 161.2620000  85.4150000  76.0680000 161.5530000
  85.8840000  74.7780000 160.9140000  54.4190000  76.1040000 126.7730000
  54.8430000  76.3630000 125.9550000  54.0480000  76.9160000 127.1180000
  47.0690000  74.4400000 163.7570000  46.7600000  73.5620000 163.9790000
  46.3450000  75.0180000 164.0000000  39.7150000  57.5760000 141.4300000
  40.6130000  57.2470000 141.4170000  39.1710000  56.7880000 141.4000000
  55.4230000  84.5450000 156.1430000  55.9630000  85.0230000 156.7710000
  55.4320000  85.0890000 155.3550000  47.9570000  49.6890000 153.0340000
  47.1210000  49.2290000 153.1050000  47.7190000  50.6160000 153.0020000
  55.0160000  57.6130000 128.5020000  55.4820000  58.4390000 128.6320000
  55.5890000  56.9510000 128.8900000  54.7770000  76.9740000 149.0610000
  54.0930000  77.5200000 148.6720000  55.4770000  76.9650000 148.4070000
  66.7290000  34.2250000 126.9170000  66.7380000  35.1020000 127.2990000
  67.2730000  33.7010000 127.5060000  48.3500000  63.2780000 128.9610000
  48.5280000  63.0860000 128.0410000  48.0770000  62.4390000 129.3330000
  58.3710000  73.7870000 142.1680000  59.0020000  74.1710000 141.5600000
  58.0070000  74.5360000 142.6410000  88.0880000  66.4860000 148.5640000
  88.9770000  66.8130000 148.4260000  87.6110000  67.2340000 148.9250000
  44.5320000  59.9540000 150.1920000  44.6390000  60.5840000 149.4800000
  45.0550000  59.1970000 149.9230000  81.0070000  81.7930000 128.4130000
  81.4990000  81.0580000 128.7790000  81.6770000  82.3730000 128.0520000
  68.3620000  40.7920000 137.0330000  67.6240000  41.3400000 136.7690000
  69.1140000  41.3860000 137.0350000  66.1900000  38.8530000 132.0050000
  66.6080000  39.6640000 132.2920000  65.6860000  39.1040000 131.2300000
  69.4600000  46.6730000 136.4240000  70.1700000  46.2160000 135.9730000
  69.1910000  47.3600000 135.8140000  64.0360000  38.0600000 160.3650000
  63.4700000  38.7500000 160.7100000  64.6650000  37.8920000 161.0680000
  53.3990000  62.7500000 144.6190000  53.4080000  63.4990000 145.2140000
  53.5730000  61.9950000 145.1810000  60.7410000  74.8830000 123.5000000
  61.1280000  74.1530000 123.9820000  59.8000000  74.7020000 123.5060000
  35.2030000  77.2600000 123.7660000  35.5050000  77.3330000 124.6710000
  35.4550000  76.3750000 123.5000000  39.9670000  39.3390000 136.1200000
  40.2570000  38.6460000 136.7130000  40.6710000  39.4140000 135.4760000
  63.8850000  65.4160000 163.9990000  63.5040000  66.2890000 163.9120000
  63.9700000  65.1000000 163.0980000  52.5650000  52.6720000 150.6800000
  52.9590000  52.9110000 149.8410000  51.8300000  53.2770000 150.7800000
  77.2750000  87.3420000 134.8570000  77.3950000  88.1460000 135.3620000
  78.1620000  87.0760000 134.6150000  62.6250000  62.9030000 142.9530000
  61.8830000  63.4740000 143.1520000  63.1640000  63.4130000 142.3470000
  63.9930000  33.3650000 150.4320000  64.3040000  33.7760000 151.2380000
  63.3860000  34.0030000 150.0560000  71.3790000  34.0950000 160.8260000
  72.3080000  34.2660000 160.6770000  71.0180000  34.9410000 161.0920000
  52.9610000  31.3680000 147.8490000  53.7170000  31.0000000 148.3050000
  53.0210000  31.0150000 146.9600000  72.0110000  36.8530000 133.7370000
  72.3800000  36.3970000 134.4930000  72.4130000  37.7220000 133.7610000
  71.5530000  75.5390000 153.6150000  71.0240000  76.2260000 154.0210000
  71.9340000  75.0630000 154.3530000  66.6290000  36.2710000 136.1850000
  65.8030000  35.9590000 136.5550000  67.2940000  35.9910000 136.8150000
  50.5150000  31.4170000 151.5020000  51.3370000  31.0000000 151.2480000
  50.3560000  31.1110000 152.3950000  46.4100000  39.6520000 148.0740000
  46.2270000  38.8490000 148.5610000  46.4480000  40.3350000 148.7440000
  85.3830000  62.6360000 135.0560000  84.4510000  62.5820000 135.2640000
  85.6400000  61.7320000 134.8720000  57.9130000  52.9290000 156.7340000
  58.5570000  53.3180000 157.3250000  58.1280000  53.2900000 155.8740000
  77.9030000  77.8150000 142.3550000  78.1510000  77.8950000 143.2750000
  77.7630000  76.8760000 142.2250000  64.9350000  44.4770000 127.6020000
  64.2380000  44.0940000 127.0690000  65.7270000  44.3700000 127.0750000
  74.0990000  78.3990000 143.0850000  74.8030000  78.3890000 142.4360000
  73.7190000  79.2750000 143.0130000  57.2600000  62.9040000 155.9870000
  57.8730000  63.6380000 156.0030000  56.4000000  63.3120000 155.8780000
  71.7940000  84.7260000 130.0370000  71.6860000  85.6030000 129.6700000
  72.7420000  84.5980000 130.0780000  74.9750000  44.6700000 155.7440000
  74.2720000  44.5160000 155.1130000  74.5260000  44.9680000 156.5350000
  37.5650000  63.4770000 140.9440000  37.2440000  64.1040000 141.5930000
  38.5080000  63.6350000 140.9050000  82.1310000  82.3410000 137.4900000
  82.9420000  82.0840000 137.9280000  81.6890000  82.9120000 138.1190000
  34.4730000  55.7230000 151.9360000  33.9580000  54.9370000 152.1160000
  33.8850000  56.2860000 151.4320000  46.4300000  75.2240000 123.8790000
  46.3510000  74.8920000 124.7730000  47.1540000  74.7240000 123.5000000
  81.0570000  48.6510000 137.3450000  80.8680000  49.5770000 137.4920000
  80.6950000  48.4670000 136.4780000  44.4430000  69.3480000 126.4220000
  43.6280000  69.0810000 126.8480000  44.6650000  68.6130000 125.8500000
  71.5050000  87.6060000 161.1290000  70.7450000  87.0450000 161.2820000
  72.1530000  87.3140000 161.7700000  77.8120000  87.2210000 160.0860000
  77.6050000  86.2960000 159.9530000  76.9910000  87.6800000 159.9060000
  51.9180000  86.5550000 150.7990000  51.0440000  86.9250000 150.6810000
  51.7700000  85.6140000 150.8920000  64.7910000  75.1660000 153.1170000
  63.8490000  75.1440000 153.2880000  65.0260000  74.2530000 152.9500000
  58.7480000  78.5290000 152.5670000  59.1760000  77.9000000 153.1480000
  58.1100000  78.0090000 152.0780000  68.9120000  36.5700000 128.9660000
  69.2100000  36.2080000 128.1320000  69.7070000  36.9150000 129.3750000
  62.2270000  33.4650000 163.5570000  61.9400000  34.2630000 164.0000000
  63.0570000  33.2410000 163.9780000  78.7110000  78.6910000 137.4860000
  78.2930000  79.3180000 136.8950000  78.4190000  78.9540000 138.3590000
  77.2230000  70.0740000 145.2180000  76.3350000  70.2370000 144.9000000
  77.6710000  70.9150000 145.1200000  41.9960000  58.4690000 163.9230000
  42.9100000  58.1870000 163.9020000  42.0400000  59.4220000 164.0000000
  62.1940000  41.3320000 154.7630000  62.1420000  41.2870000 155.7180000
  61.5660000  40.6770000 154.4580000  41.7880000  51.8770000 144.9270000
  41.1960000  51.7550000 144.1850000  41.8810000  52.8260000 145.0060000
  59.5710000  82.6420000 132.4220000  59.2340000  83.4310000 132.8450000
  58.8200000  82.2830000 131.9490000  53.1910000  31.0000000 133.5250000
  53.5440000  31.2560000 134.3760000  53.6590000  31.5490000 132.8950000
  40.6630000  47.7230000 157.8800000  41.0070000  47.5890000 158.7630000
  39.7540000  47.9900000 158.0140000  54.5240000  62.8340000 140.7500000
  53.9550000  63.0910000 141.4750000  53.9230000  62.5300000 140.0690000
  88.5830000  81.2550000 139.3960000  88.9880000  80.6330000 138.7920000
  89.0000000  82.0930000 139.1940000  68.8780000  74.0110000 126.9410000
  68.2690000  74.5790000 127.4130000  69.2460000  74.5710000 126.2570000
  58.0560000  47.8900000 158.0380000  57.7820000  48.0740000 158.9360000
  57.2390000  47.7230000 157.5670000  44.2780000  48.4540000 151.1860000
  45.0700000  48.5280000 151.7170000  44.2060000  47.5190000 150.9900000
  64.4540000  66.0810000 129.9310000  65.1280000  66.7600000 129.9260000
  63.6320000  66.5600000 130.0420000  38.2520000  51.0060000 144.4350000
  38.8150000  51.0500000 143.6630000  37.5620000  50.3880000 144.1950000
  71.8700000  44.0830000 128.9860000  72.1360000  43.6280000 129.7850000
  72.6870000  44.4190000 128.6170000  75.2600000  83.8640000 147.1930000
  74.3390000  84.0000000 147.4150000  75.6750000  83.6310000 148.0240000
  31.1050000  34.2260000 133.1620000  32.0130000  34.1130000 132.8830000
  31.0000000  35.1720000 133.2630000  75.5230000  80.2220000 123.7350000
  74.7790000  79.6970000 124.0300000  75.2400000  81.1290000 123.8550000
  48.0370000  67.3080000 137.9590000  47.5690000  66.5350000 137.6440000
  48.6990000  67.4780000 137.2890000  74.2780000  39.4090000 128.5710000
  74.2000000  40.3620000 128.5370000  73.3790000  39.0990000 128.6870000
  62.6640000  89.0000000 133.3470000  63.2270000  88.9690000 132.5740000
  62.1260000  88.2100000 133.2840000  87.8440000  56.0020000 147.2940000
  87.7270000  55.6510000 148.1770000  87.9380000  56.9460000 147.4220000
  63.0070000  61.2250000 163.4950000  63.0470000  62.0370000 164.0000000
  63.5440000  60.6070000 163.9920000  69.3490000  36.7920000 151.1360000
  69.5190000  36.8670000 152.0740000  68.5150000  36.3240000 151.0800000
  66.1580000  38.1050000 127.0980000  65.8240000  38.7000000 127.7690000
  67.0780000  37.9730000 127.3300000  51.9570000  34.1180000 160.6700000
  52.3230000  33.4730000 160.0660000  51.7010000  33.6090000 161.4390000
  86.8510000  57.0610000 140.2490000  87.0000000  56.9220000 141.1840000
  87.2730000  57.8990000 140.0600000  67.2230000  64.4690000 129.8990000
  67.4010000  65.3540000 129.5820000  66.3780000  64.5400000 130.3460000
  69.0110000  67.9540000 162.4450000  68.1470000  67.5510000 162.5290000
  69.4950000  67.3650000 161.8660000  70.2220000  70.4970000 146.5910000
  70.8830000  69.8060000 146.5650000  70.6490000  71.2220000 147.0480000
  87.9920000  83.6280000 147.6770000  87.5180000  83.0310000 147.0970000
  88.8950000  83.6040000 147.3600000  38.9650000  63.6840000 130.3340000
  38.8940000  64.1420000 129.4970000  38.3690000  62.9390000 130.2510000
  61.9110000  44.4510000 146.4120000  61.7560000  43.7120000 145.8240000
  62.6790000  44.1930000 146.9230000  48.1280000  31.8310000 161.6710000
  47.4200000  32.4040000 161.3770000  47.6960000  31.0000000 161.8710000
  73.1280000  72.1250000 138.1790000  72.4980000  72.2910000 137.4780000
  73.1360000  72.9340000 138.6910000  76.6170000  73.5640000 163.9760000
  77.5660000  73.6910000 163.9760000  76.5030000  72.6140000 164.0000000
  40.4800000  45.7590000 146.0680000  40.3510000  46.6290000 146.4460000
  40.4710000  45.9040000 145.1220000  82.6410000  77.0900000 160.3900000
  83.2220000  77.3330000 161.1110000  83.0800000  77.4200000 159.6060000
  70.9530000  52.6470000 126.3320000  70.2380000  52.1100000 125.9900000
  70.5180000  53.4010000 126.7290000  37.0090000  31.2530000 161.1700000
  37.1370000  31.0060000 160.2540000  37.8910000  31.2620000 161.5420000
  44.7200000  46.9690000 163.9880000  45.5660000  47.4170000 164.0000000
  44.0740000  47.6760000 163.9960000  85.5930000  33.4050000 135.1600000
  84.7500000  32.9510000 135.1710000  86.0290000  33.1200000 135.9640000
  50.9990000  54.4040000 145.8050000  50.0900000  54.3450000 146.0980000
  51.4710000  54.7620000 146.5570000  38.7550000  73.8260000 147.5900000
  39.1270000  74.2910000 146.8400000  39.2880000  74.1070000 148.3340000
  38.2680000  63.0930000 125.2750000  37.4840000  63.2230000 124.7420000
  38.5720000  63.9790000 125.4750000  78.7350000  39.5330000 144.1150000
  77.9560000  38.9810000 144.1700000  79.4660000  38.9150000 144.0890000
  62.1540000  31.4390000 153.9040000  61.3570000  31.0000000 154.1990000
  62.8600000  31.0000000 154.3800000  64.9950000  62.6440000 135.5860000
  64.3990000  63.1900000 136.0980000  65.5810000  62.2530000 136.2350000
  37.9090000  45.0230000 164.0000000  37.1110000  44.4940000 163.9990000
  37.5970000  45.9280000 163.9960000  83.8890000  86.6660000 134.2270000
  84.3800000  87.1630000 134.8810000  84.4760000  86.6180000 133.4720000
  48.7200000  63.4460000 133.6320000  49.0580000  62.5530000 133.5720000
  47.7850000  63.3390000 133.8080000  69.1750000  81.0550000 161.3370000
  69.6960000  80.3340000 161.6900000  68.3810000  80.6350000 161.0030000
  49.5710000  54.0860000 152.7020000  49.1040000  54.6340000 152.0710000
  49.6840000  54.6480000 153.4700000  64.7300000  68.6610000 144.0250000
  63.8250000  68.8730000 143.7970000  65.2580000  69.2550000 143.4910000
  51.8050000  40.2020000 160.8380000  50.9750000  40.4550000 160.4330000
  52.1660000  41.0210000 161.1780000  76.3620000  53.4640000 127.7090000
  76.7110000  54.3150000 127.4430000  75.4920000  53.4270000 127.3100000
  68.9410000  68.2270000 133.2840000  69.0620000  69.1730000 133.3610000
  69.8100000  67.8910000 133.0620000  66.6270000  39.8490000 161.6780000
  66.2780000  39.3550000 162.4190000  67.5730000  39.8650000 161.8230000
  39.4870000  31.7600000 152.5760000  39.2700000  32.5160000 152.0310000
  39.4180000  31.0100000 151.9850000  38.5610000  43.5080000 142.2250000
  39.2450000  43.8850000 142.7780000  38.2950000  44.2260000 141.6500000
  62.0460000  76.0120000 157.0860000  61.7730000  75.3340000 157.7040000
  62.2490000  75.5360000 156.2810000  50.2770000  71.6800000 124.0440000
  49.5600000  71.2770000 124.5330000  49.8530000  72.3450000 123.5000000
  85.6790000  53.5620000 161.1180000  85.7460000  52.6180000 161.2620000
  86.5870000  53.8610000 161.0630000  73.0190000  36.8080000 161.3970000
  73.0970000  37.5800000 160.8370000  73.8740000  36.7300000 161.8190000
  89.0000000  60.1830000 152.3460000  88.9240000  59.4700000 152.9810000
  88.7550000  60.9680000 152.8370000  88.9990000  62.8300000 133.7610000
  89.0000000  63.7160000 134.1220000  88.3970000  62.3420000 134.3240000
  88.3990000  88.6930000 132.8080000  88.8350000  87.9300000 132.4300000
  88.9990000  89.0000000 133.4880000  59.6050000  41.5380000 140.3520000
  60.2910000  41.7060000 140.9980000  60.0360000  41.6650000 139.5060000
  33.3610000  50.0450000 156.6920000  34.2830000  49.8460000 156.5310000
  33.3000000  50.9960000 156.5970000  55.2240000  31.1630000 129.9880000
  55.0750000  31.0700000 129.0480000  54.3460000  31.2330000 130.3640000
  47.1390000  39.5510000 123.5270000  47.9760000  40.0150000 123.5310000
  47.3790000  38.6240000 123.5000000  58.2600000  52.7570000 149.0060000
  58.1030000  53.4290000 148.3430000  57.6230000  52.0700000 148.8080000
  31.0430000  44.4490000 125.7650000  31.0000000  45.0820000 126.4820000
  31.9290000  44.5410000 125.4160000  34.1850000  62.9100000 126.1640000
  34.1080000  62.9430000 127.1170000  33.5570000  63.5610000 125.8500000
  57.6380000  38.4020000 125.8980000  57.1380000  39.2160000 125.8370000
  58.5420000  38.6860000 126.0310000  56.4900000  37.3380000 154.2060000
  55.9340000  36.5640000 154.2880000  56.2000000  37.7570000 153.3950000
  41.0500000  71.8250000 163.9590000  40.6010000  70.9820000 164.0000000
  41.9810000  71.6010000 163.9500000  41.3250000  63.4850000 145.6240000
  40.5940000  62.8680000 145.5840000  41.0620000  64.2060000 145.0510000
  61.5910000  57.1710000 153.6290000  61.0330000  57.9480000 153.6720000
  61.1500000  56.5280000 154.1850000  40.8610000  33.6380000 154.7890000
  40.3310000  33.6510000 153.9920000  41.7630000  33.5690000 154.4760000
  52.4820000  55.5780000 151.5090000  51.5880000  55.5400000 151.8480000
  53.0180000  55.8000000 152.2710000  50.1150000  82.9860000 161.0270000
  51.0380000  82.8380000 160.8210000  50.0840000  83.8830000 161.3600000
  35.1530000  31.1500000 142.7420000  34.2940000  31.0050000 142.3460000
  35.0130000  31.0050000 143.6790000  33.0630000  50.9890000 134.1110000
  32.7820000  51.9030000 134.1330000  33.8750000  51.0000000 133.6040000
  88.7260000  66.3430000 158.2590000  87.8160000  66.5210000 158.4950000
  88.7880000  65.3870000 158.2500000  40.8700000  79.3960000 136.1200000
  40.2600000  80.1090000 136.3080000  41.7370000  79.7790000 136.2580000
  74.0170000  56.9890000 150.0380000  74.6710000  56.5610000 150.5890000
  73.5440000  56.2660000 149.6230000  85.3000000  59.4340000 140.1120000
  85.0130000  58.9260000 140.8710000  84.9580000  60.3150000 140.2690000
  37.5150000  69.4260000 152.7750000  37.2640000  68.5850000 153.1550000
  38.4150000  69.2950000 152.4730000  36.2910000  77.8920000 134.5330000
  36.3180000  77.0190000 134.9260000  37.1200000  77.9690000 134.0620000
  45.5120000  43.6680000 128.8430000  46.4570000  43.7910000 128.7560000
  45.4000000  42.7200000 128.9230000  62.2110000  55.9100000 132.2850000
  61.2730000  55.8310000 132.4570000  62.3530000  55.4020000 131.4860000
  41.3760000  81.0540000 160.4970000  40.6370000  81.6260000 160.2920000
  42.0880000  81.6520000 160.7220000  80.7090000  59.7550000 156.3140000
  80.3570000  60.6260000 156.4990000  80.3670000  59.5370000 155.4470000
  82.5640000  40.1130000 126.0320000  82.3320000  40.9830000 126.3560000
  81.7230000  39.6760000 125.8950000  58.6510000  82.4460000 123.5670000
  59.4920000  81.9900000 123.5360000  57.9970000  81.7500000 123.5000000
  36.1340000  52.1990000 145.3750000  35.4720000  52.8780000 145.5050000
  35.6570000  51.3750000 145.4770000  62.8290000  75.9540000 136.1870000
  62.8580000  76.3150000 135.3010000  62.3060000  76.5820000 136.6850000
  87.1320000  31.5130000 142.5530000  86.1750000  31.5040000 142.5520000
  87.3640000  32.3310000 142.9930000  67.6610000  68.9280000 144.5420000
  68.4710000  69.3820000 144.7720000  67.9500000  68.1050000 144.1460000
  77.6270000  76.3410000 138.9210000  77.1390000  75.5530000 138.6820000
  78.3860000  76.3390000 138.3370000  85.1670000  56.2260000 128.2180000
  86.1200000  56.2860000 128.1560000  84.9890000  55.2860000 128.2620000
  46.6970000  42.5880000 141.9420000  46.2020000  43.4070000 141.9520000
  46.2740000  42.0440000 142.6070000  72.5640000  85.6240000 134.7740000
  73.4230000  85.4040000 134.4130000  72.6430000  86.5410000 135.0380000
  86.5510000  55.7130000 137.6890000  87.3970000  56.0600000 137.9710000
  86.1260000  55.4290000 138.4990000  37.4660000  52.5100000 159.9960000
  36.5500000  52.7640000 160.0990000  37.9110000  53.3160000 159.7320000
  76.4650000  55.1870000 125.1140000  76.5310000  55.1410000 124.1600000
  75.5660000  54.9200000 125.3050000  37.3770000  55.2200000 140.3730000
  37.1870000  56.0450000 139.9260000  37.6750000  54.6330000 139.6780000
  61.3130000  58.3190000 132.7110000  60.5310000  58.5400000 133.2160000
  61.4400000  59.0680000 132.1270000  71.5350000  79.0730000 159.3510000
  72.2960000  79.0200000 159.9300000  70.7840000  78.9330000 159.9290000
  59.8440000  41.2160000 131.7950000  60.6360000  40.7330000 131.5620000
  59.1580000  40.8320000 131.2480000  59.6270000  74.3370000 125.9730000
  59.5640000  73.3880000 126.0760000  58.7350000  74.6160000 125.7660000
  70.0770000  38.4540000 127.4410000  70.9270000  38.2960000 127.0300000
  69.5870000  38.9590000 126.7910000  51.2490000  44.7820000 147.8600000
  50.7470000  44.3990000 147.1410000  51.7270000  45.5080000 147.4600000
  66.2410000  59.4380000 151.6940000  65.6860000  58.6650000 151.7920000
  65.6280000  60.1740000 151.6800000  55.2970000  46.8700000 127.0940000
  56.1300000  47.1660000 127.4620000  55.0690000  47.5390000 126.4490000
  75.9480000  37.0880000 144.3780000  76.4700000  36.3110000 144.5750000
  76.2050000  37.3310000 143.4880000  31.0000000  58.6810000 163.4320000
  31.0050000  59.4520000 164.0000000  31.2820000  57.9630000 164.0000000
  79.2830000  50.4240000 128.5730000  80.0080000  49.7990000 128.5870000
  79.6890000  51.2560000 128.3300000  59.2070000  42.8870000 152.3870000
  59.2080000  42.6960000 153.3250000  59.8090000  43.6250000 152.2920000
  60.2400000  83.4380000 153.8990000  59.4610000  83.9730000 154.0480000
  60.7560000  83.5350000 154.7000000  34.7930000  74.2750000 156.5320000
  33.9110000  73.9860000 156.7660000  34.8900000  74.0260000 155.6120000
  68.5440000  59.2300000 133.5730000  67.5970000  59.2870000 133.4450000
  68.9160000  59.4440000 132.7170000  49.4490000  50.0560000 158.5810000
  49.7420000  50.5970000 157.8490000  48.8710000  49.4040000 158.1820000
  86.6600000  88.9820000 143.6080000  85.8450000  89.0000000 143.1060000
  86.3780000  88.9930000 144.5230000  43.5380000  39.8090000 148.5580000
  43.7170000  40.1770000 147.6930000  42.7320000  40.2420000 148.8410000
  44.4260000  64.8140000 143.1760000  45.3800000  64.7500000 143.2110000
  44.2500000  65.7540000 143.1490000  86.5290000  59.9760000 142.6140000
  86.0840000  60.7600000 142.9360000  86.9510000  60.2560000 141.8020000
  33.8480000  42.5120000 139.2310000  33.9840000  41.6620000 138.8130000
  33.3480000  42.3130000 140.0220000  42.4720000  69.8570000 144.4890000
  42.6550000  69.0460000 144.9630000  41.8780000  69.5950000 143.7850000
  41.5660000  89.0000000 138.5610000  41.8750000  88.1150000 138.7510000
  40.6340000  88.8920000 138.3660000  55.9380000  34.3740000 152.1110000
  55.8030000  35.3210000 152.0830000  55.3500000  34.0280000 151.4400000
  61.1320000  45.1370000 136.5320000  60.5140000  45.6940000 136.0610000
  61.9120000  45.1210000 135.9770000  46.4170000  74.0260000 131.6240000
  46.8140000  73.1580000 131.6870000  46.9550000  74.5790000 132.1910000
  67.0010000  51.5640000 149.4990000  67.6520000  51.2050000 150.1030000
  66.9990000  52.5040000 149.6790000  48.4090000  42.8880000 151.5610000
  48.8760000  43.7030000 151.7420000  49.0580000  42.3300000 151.1310000
  49.0790000  58.4080000 140.9780000  49.9130000  58.2100000 140.5510000
  49.0640000  59.3630000 141.0430000  71.4610000  70.0280000 131.0670000
  70.5980000  70.2840000 130.7440000  71.4310000  69.0710000 131.1000000
  56.0720000  52.1320000 159.3570000  55.4120000  52.5560000 158.8090000
  56.9070000  52.3680000 158.9530000  65.2800000  44.0550000 140.1450000
  66.0010000  43.6470000 139.6650000  65.7090000  44.5830000 140.8180000
  53.9480000  88.7150000 155.5230000  54.8210000  89.0000000 155.7920000
  53.3730000  88.9960000 156.2350000  52.2970000  61.4580000 142.6720000
  51.4370000  61.8420000 142.5000000  52.5410000  61.0370000 141.8480000
  73.7280000  35.5310000 143.1230000  73.6810000  36.3350000 143.6400000
  74.5260000  35.0970000 143.4270000  86.9970000  51.4000000 155.9550000
  86.6760000  51.8870000 155.1960000  86.4520000  50.6130000 155.9830000
  71.9860000  77.2290000 162.1450000  72.4060000  76.3690000 162.1490000
  71.0490000  77.0380000 162.1850000  70.2130000  83.5770000 131.5960000
  70.2140000  82.6490000 131.3640000  69.3410000  83.8860000 131.3470000
  64.5930000  57.3750000 148.5800000  64.8720000  57.6950000 149.4380000
  64.2340000  58.1470000 148.1410000  33.6780000  43.8120000 131.2320000
  33.2550000  43.9050000 130.3790000  34.0060000  44.6890000 131.4340000
  35.6850000  43.5720000 144.9830000  36.3650000  43.2710000 145.5860000
  35.9380000  44.4690000 144.7640000  65.9860000  35.9420000 156.9540000
  66.8420000  35.8700000 157.3770000  65.9870000  36.8130000 156.5580000
  34.8680000  68.4430000 140.2250000  34.4450000  68.8380000 139.4620000
  35.7920000  68.3830000 139.9840000  71.7840000  60.4240000 145.4480000
  71.2110000  60.2690000 146.1990000  72.5370000  60.8890000 145.8130000
  88.7670000  79.6630000 141.9990000  88.9560000  79.4500000 141.0860000
  89.0000000  78.8700000 142.4830000  42.4090000  49.5750000 143.8500000
  42.6670000  48.9620000 143.1620000  43.1280000  49.5430000 144.4820000
  73.1660000  36.3210000 148.8770000  72.9710000  35.9370000 149.7320000
  73.6860000  35.6550000 148.4280000  60.8400000  54.8900000 149.4360000
  60.6050000  55.8180000 149.4240000  60.1060000  54.4630000 149.8790000
  55.1990000  58.4520000 162.7380000  55.0680000  57.5970000 162.3280000
  54.8230000  58.3580000 163.6140000  46.3030000  62.4480000 131.9390000
  45.7140000  63.1840000 131.7750000  45.7530000  61.6720000 131.8350000
  74.1590000  67.1370000 159.2280000  73.2890000  67.5250000 159.3260000
  74.7500000  67.8870000 159.1590000  31.1070000  64.5470000 126.9020000
  31.0000000  64.1330000 126.0460000  31.2540000  63.8180000 127.5050000
  39.7870000  67.8030000 154.8110000  40.7140000  67.9750000 154.9750000
  39.3640000  68.6560000 154.9130000  60.3570000  35.9440000 162.4770000
  60.1080000  35.2370000 161.8820000  59.7310000  35.8820000 163.1990000
  39.6520000  85.9940000 143.0210000  38.8720000  86.3880000 142.6330000
  39.4230000  85.0710000 143.1380000  55.2710000  60.2290000 152.2040000
  55.2280000  59.4000000 152.6800000  54.8870000  60.8700000 152.8030000
  59.4630000  65.3070000 161.1690000  59.1600000  65.1130000 162.0550000
  58.7170000  65.0910000 160.6080000  81.3010000  31.9540000 130.2840000
  81.3520000  31.0000000 130.3350000  81.8780000  32.1870000 129.5570000
  58.0830000  62.8060000 164.0000000  58.3190000  63.7330000 163.9630000
  57.1270000  62.7990000 163.9500000  58.2350000  49.0830000 144.2440000
  58.2290000  48.4720000 144.9810000  58.0370000  48.5410000 143.4810000
  71.0020000  76.0810000 128.1560000  71.4730000  76.8790000 127.9170000
  70.1500000  76.3890000 128.4650000  58.3300000  66.9650000 163.5160000
  57.5880000  67.3260000 164.0000000  58.2750000  67.3740000 162.6520000
  88.0830000  84.8400000 144.9250000  88.9280000  84.3950000 144.9890000
  87.4440000  84.1320000 144.8530000  67.9020000  68.1850000 160.1220000
  68.6440000  68.7720000 159.9830000  67.7530000  67.7790000 159.2670000
  56.8370000  67.2200000 148.1710000  57.2720000  67.5160000 148.9700000
  57.3740000  66.4910000 147.8600000  67.7090000  45.9940000 145.4450000
  68.4350000  45.4480000 145.7440000  67.8490000  46.8370000 145.8770000
  62.5340000  48.1260000 129.2290000  62.0570000  48.5430000 128.5120000
  62.5490000  48.7860000 129.9230000  34.1830000  71.5160000 157.3910000
  34.4210000  71.3790000 158.3080000  35.0070000  71.7470000 156.9610000
  70.8210000  56.2630000 124.7350000  70.5560000  55.5190000 125.2750000
  70.3340000  56.1520000 123.9180000  81.1160000  66.1600000 147.9520000
  80.9990000  67.0080000 148.3800000  80.3180000  66.0400000 147.4360000
  52.7380000  61.1280000 157.8440000  52.4820000  60.7540000 158.6870000
  53.6780000  61.2900000 157.9290000  72.2290000  88.5170000 133.2460000
  72.1440000  89.0000000 134.0680000  72.8950000  88.9970000 132.7530000
  50.4300000  36.8540000 152.1690000  51.0550000  36.8640000 152.8930000
  50.9650000  36.6930000 151.3920000  37.2610000  52.6090000 137.1270000
  38.0950000  53.0740000 137.0710000  37.4970000  51.7260000 137.4120000
  45.8620000  54.4200000 140.9380000  46.6750000  54.0660000 141.2960000
  46.0990000  54.7300000 140.0630000  75.9000000  86.7660000 147.0110000
  76.3680000  86.5730000 147.8240000  76.5920000  86.9310000 146.3700000
  52.7540000  55.2710000 149.0430000  51.7980000  55.2950000 149.0080000
  53.0140000  56.1870000 149.1430000  33.4790000  45.9970000 144.9150000
  33.6750000  45.5290000 144.1040000  33.2640000  46.8860000 144.6330000
  80.5080000  58.5070000 136.8850000  81.2790000  59.0450000 136.7080000
  80.5820000  57.7730000 136.2740000  52.0900000  77.0020000 143.3680000
  51.5790000  76.1950000 143.4390000  51.5560000  77.6630000 143.8090000
  69.4900000  71.6190000 161.2160000  69.0770000  71.1860000 160.4690000
  69.8560000  70.9030000 161.7360000  89.0000000  69.9850000 150.2010000
  88.9490000  69.0510000 150.0010000  88.6260000  70.4160000 149.4320000
  80.3010000  59.8380000 143.4620000  79.3500000  59.7520000 143.5210000
  80.5430000  60.3580000 144.2280000  59.5510000  59.7000000 145.8360000
  59.1340000  60.5580000 145.7630000  58.8880000  59.0840000 145.5210000
  60.1940000  86.6810000 158.2450000  59.7790000  86.8120000 159.0980000
  61.0830000  87.0190000 158.3560000  55.1110000  73.2990000 146.0720000
  54.8770000  72.4070000 145.8150000  54.4980000  73.5150000 146.7750000
  62.7870000  70.1910000 161.3730000  63.3140000  69.4020000 161.2500000
  61.8940000  69.8670000 161.4940000  38.2290000  34.3880000 156.1020000
  37.9910000  33.4840000 155.8980000  37.4740000  34.7340000 156.5780000
  43.3890000  63.9420000 133.9180000  43.7120000  64.7560000 134.3040000
  43.6870000  63.9710000 133.0090000  83.5290000  59.3820000 146.3770000
  82.8990000  60.0680000 146.1580000  83.0800000  58.8400000 147.0260000
  53.6340000  36.9870000 160.4140000  52.6960000  36.9710000 160.6030000
  53.8430000  36.0860000 160.1630000  88.8660000  45.4330000 129.6900000
  87.9770000  45.1240000 129.8640000  88.9730000  45.3370000 128.7440000
  80.5290000  86.2320000 140.7220000  80.4460000  85.9540000 141.6340000
  81.0340000  87.0440000 140.7640000  86.9640000  59.5500000 134.3730000
  86.9340000  58.5940000 134.3310000  86.5940000  59.8390000 133.5390000
  89.0000000  72.0200000 163.6430000  88.2780000  72.5380000 164.0000000
  88.8530000  71.1370000 163.9820000  82.4920000  59.0450000 140.2580000
  82.5980000  59.7740000 139.6460000  82.5550000  59.4480000 141.1240000
  58.6690000  88.9100000 129.2520000  57.8520000  88.9960000 129.7440000
  58.4080000  89.0000000 128.3350000  83.8620000  68.6120000 161.8160000
  83.7040000  68.1680000 160.9830000  83.0990000  68.3960000 162.3520000
  46.8200000  86.4940000 152.9530000  47.3060000  86.3970000 153.7710000
  46.7680000  85.6070000 152.5970000  78.1770000  34.1710000 159.8610000
  78.0620000  34.6230000 160.6970000  77.2860000  34.0470000 159.5310000
  81.2780000  64.7370000 125.3930000  81.4550000  64.0120000 124.7940000
  80.8500000  65.3990000 124.8490000  68.1100000  79.0810000 129.1970000
  67.1910000  79.1010000 129.4600000  68.2390000  78.2020000 128.8390000
  55.0760000  54.3720000 148.6990000  55.4870000  55.1870000 148.9880000
  55.6730000  54.0240000 148.0360000  88.9790000  33.2310000 129.7830000
  89.0000000  33.8720000 130.4930000  88.0570000  33.1850000 129.5280000
  88.4110000  79.5210000 158.9470000  88.9960000  79.1140000 159.5870000
  88.9990000  79.9120000 158.3000000  73.4120000  31.2420000 150.9390000
  72.4960000  31.0000000 150.8070000  73.7460000  31.4080000 150.0570000
  32.7880000  60.4860000 154.0730000  32.9720000  59.7200000 153.5300000
  32.0660000  60.9290000 153.6270000  82.6310000  83.4870000 141.1920000
  81.7280000  83.6080000 140.8990000  83.0790000  83.1050000 140.4370000
  83.5440000  64.1860000 144.6920000  83.7500000  63.3360000 144.3030000
  83.8630000  64.1210000 145.5930000  80.8670000  68.6510000 145.5480000
  80.2560000  69.2790000 145.1620000  81.2590000  69.1200000 146.2850000
  39.0390000  79.9260000 146.1140000  39.8230000  79.9860000 146.6590000
  39.1200000  80.6520000 145.4940000  71.7890000  67.0850000 127.0280000
  72.4420000  67.3970000 127.6540000  71.1920000  66.5490000 127.5500000
  57.0080000  80.5860000 152.2160000  56.4470000  81.3570000 152.1270000
  56.3980000  79.8530000 152.2950000  39.5960000  52.6200000 131.8230000
  38.6490000  52.4790000 131.8330000  39.9210000  52.1150000 132.5690000
  33.3960000  70.7880000 129.3590000  33.5770000  71.7280000 129.3300000
  33.1650000  70.6160000 130.2720000  38.7220000  60.4750000 154.0920000
  38.0080000  60.2350000 153.5020000  39.0990000  59.6390000 154.3660000
  45.9270000  45.0310000 146.7890000  45.4840000  45.8070000 146.4480000
  45.5340000  44.8890000 147.6500000  72.5500000  61.6300000 161.9120000
  73.4140000  61.2290000 161.8280000  71.9350000  60.9140000 161.7520000
  58.1120000  42.5530000 160.7180000  57.3050000  43.0160000 160.9390000
  57.9100000  41.6300000 160.8730000  42.5590000  67.2040000 125.0290000
  41.7880000  66.8390000 125.4620000  42.7510000  66.5880000 124.3210000
  53.9160000  31.0000000 144.0050000  54.3630000  31.0000000 144.8510000
  54.4680000  31.5420000 143.4420000  74.4890000  34.8260000 145.9120000
  74.4680000  35.7720000 146.0560000  75.4060000  34.5840000 146.0370000
  71.8810000  73.9060000 140.7530000  71.0150000  74.3040000 140.6710000
  71.7130000  72.9630000 140.7480000  34.5790000  81.0950000 141.2140000
  33.9240000  81.0590000 140.5170000  34.8120000  82.0210000 141.2770000
  74.4910000  63.6310000 154.9720000  73.7380000  63.1440000 154.6380000
  74.1230000  64.2190000 155.6330000  75.8730000  66.6190000 137.0170000
  76.2460000  66.0190000 136.3710000  76.3390000  67.4430000 136.8760000
  69.5660000  86.0100000 143.3900000  69.4280000  85.8710000 142.4540000
  69.8270000  85.1520000 143.7250000  47.1450000  66.2820000 125.9640000
  46.8240000  65.5420000 125.4490000  48.0940000  66.2720000 125.8320000
  45.6940000  81.5350000 138.5870000  46.6170000  81.2920000 138.6510000
  45.6590000  82.4350000 138.9120000  81.2350000  31.0000000 161.2130000
  80.7070000  31.0550000 162.0090000  80.5960000  31.0090000 160.5000000
  43.2690000  81.6780000 137.1260000  42.4750000  82.2110000 137.0870000
  43.6060000  81.6820000 136.2300000  31.2990000  59.9870000 123.5060000
  32.2540000  60.0490000 123.5030000  31.0000000  60.8970000 123.5000000
  82.3850000  46.9370000 152.6580000  81.6480000  46.3970000 152.3710000
  82.8780000  46.3720000 153.2540000  73.1260000  79.1160000 135.1970000
  72.1870000  78.9360000 135.2380000  73.5390000  78.3040000 135.4940000
  59.0480000  59.6030000 154.2730000  58.2180000  59.3160000 153.8930000
  58.8740000  60.4900000 154.5880000  40.8570000  84.4140000 150.9460000
  40.1200000  83.8050000 150.9880000  40.8390000  84.8710000 151.7870000
  86.2350000  81.3770000 125.7350000  86.5260000  82.2810000 125.8560000
  86.0730000  81.0560000 126.6230000  84.2080000  88.8070000 129.7530000
  84.5080000  87.9000000 129.8130000  84.2110000  89.0000000 128.8150000
  44.7550000  50.1850000 123.9780000  45.4020000  50.7050000 123.5000000
  43.9370000  50.3240000 123.5010000  68.0570000  42.1470000 158.4680000
  68.7730000  42.7800000 158.4220000  68.3470000  41.4170000 157.9200000
  31.0380000  38.6420000 134.6460000  31.0000000  39.5220000 135.0190000
  31.0000000  38.7800000 133.6990000  41.1190000  43.9400000 140.4950000
  41.0630000  43.2690000 141.1750000  40.6180000  44.6780000 140.8450000
  69.3060000  65.2170000 160.6010000  68.3600000  65.1250000 160.7100000
  69.6180000  64.3250000 160.4480000  79.1150000  41.6430000 129.6130000
  79.5520000  40.7920000 129.6200000  78.2390000  41.4670000 129.9560000
  78.1550000  60.4790000 164.0000000  77.2440000  60.1990000 163.9120000
  78.6610000  59.6680000 163.9410000  43.7280000  82.5880000 126.1670000
  43.3520000  82.4220000 127.0310000  43.2370000  83.3370000 125.8300000
  37.9080000  31.0000000 140.3070000  38.4960000  31.6500000 140.6910000
  37.8550000  31.2410000 139.3820000  52.9110000  75.2020000 141.5710000
  52.7830000  74.2540000 141.5860000  53.6710000  75.3320000 141.0040000
  49.0250000  70.0610000 138.0980000  48.1340000  69.7840000 138.3100000
  49.5060000  69.9740000 138.9210000  56.7960000  75.7620000 150.1910000
  56.8900000  74.8140000 150.2770000  57.6940000  76.0870000 150.1160000
  64.4690000  77.2550000 146.3630000  65.3970000  77.4880000 146.3780000
  64.2270000  77.2910000 145.4370000  82.3120000  31.9050000 156.7860000
  82.1500000  31.0000000 156.5200000  81.5740000  32.3970000 156.4230000
  69.7960000  72.6850000 144.3870000  69.6200000  71.7490000 144.4790000
  70.4120000  72.8840000 145.0930000  61.5400000  53.1290000 134.0500000
  62.3220000  53.6480000 133.8660000  60.8480000  53.5470000 133.5360000
  47.7620000  86.1560000 131.9020000  47.2610000  85.4100000 132.2320000
  48.6560000  85.8230000 131.8120000  58.8700000  63.8530000 143.9120000
  59.6830000  64.3570000 143.9540000  59.1360000  62.9520000 144.0990000
  79.7270000  45.5790000 147.4670000  79.2240000  45.2120000 146.7400000
  80.3530000  44.8920000 147.6960000  42.3610000  44.9360000 160.9900000
  41.7610000  45.4700000 161.5100000  42.5560000  44.1820000 161.5480000
  42.3320000  37.7620000 146.0660000  42.2000000  37.4550000 146.9630000
  43.0970000  38.3360000 146.1190000  34.0860000  62.4230000 149.1430000
  33.2640000  61.9440000 149.0390000  34.5470000  61.9600000 149.8420000
  56.7920000  83.9920000 142.2050000  57.6300000  84.3600000 141.9250000
  56.9160000  83.0440000 142.1530000  39.8830000  55.4200000 155.1480000
  39.5900000  56.0630000 155.7940000  40.7450000  55.1440000 155.4600000
  66.4270000  88.8060000 140.3820000  67.0910000  89.0000000 141.0440000
  65.5940000  89.0000000 140.8130000  85.3990000  68.7860000 128.3700000
  84.5140000  68.9540000 128.6950000  85.3000000  68.7370000 127.4190000
  61.2860000  71.1170000 128.4040000  60.4560000  70.9890000 128.8620000
  61.0420000  71.1890000 127.4810000  40.7990000  65.5680000 139.3460000
  40.1720000  65.9960000 139.9290000  40.4600000  64.6790000 139.2410000
  81.7540000  62.8340000 160.5120000  82.4380000  62.2840000 160.1310000
  82.0350000  62.9750000 161.4160000  43.8390000  58.2540000 135.7840000
  44.2610000  58.1990000 136.6410000  42.9410000  57.9600000 135.9400000
  70.0970000  72.7190000 138.0320000  69.3630000  73.2100000 138.3990000
  70.3350000  72.0940000 138.7170000  63.7040000  51.6150000 134.5580000
  64.3700000  50.9430000 134.4140000  64.1830000  52.3470000 134.9480000
  36.4560000  84.2320000 150.6370000  36.3080000  84.3510000 151.5750000
  37.3970000  84.0720000 150.5610000  42.5250000  52.7660000 133.3990000
  42.8820000  53.2800000 132.6750000  43.2960000  52.4200000 133.8500000
  61.3070000  88.1000000 160.6000000  61.6260000  89.0000000 160.6600000
  61.4160000  87.7470000 161.4830000  85.3970000  75.1880000 139.4030000
  86.1170000  75.2210000 138.7740000  84.6860000  74.7520000 138.9320000
  59.5710000  65.6130000 134.7940000  58.9710000  66.3450000 134.6540000
  59.5720000  65.4810000 135.7430000  72.7320000  47.1080000 135.4610000
  72.7690000  46.1790000 135.6900000  73.6250000  47.4240000 135.5970000
  48.0040000  48.4470000 135.5440000  48.6030000  49.0210000 135.0670000
  48.4750000  48.2240000 136.3480000  36.2680000  50.4490000 132.3270000
  37.0430000  49.8900000 132.2690000  36.4290000  51.0040000 133.0910000
  31.0050000  66.4680000 130.9160000  31.2080000  66.3260000 129.9920000
  31.0000000  65.5900000 131.2980000  55.9970000  61.6840000 149.3820000
  56.2340000  60.7830000 149.6020000  56.0390000  62.1530000 150.2160000
  65.4300000  31.0000000 156.9410000  64.8760000  31.0000000 157.7210000
  64.8150000  31.0480000 156.2090000  68.4400000  36.3250000 161.3670000
  68.1460000  35.4630000 161.6620000  67.6690000  36.8850000 161.4580000
  51.5460000  39.8870000 132.2380000  51.2710000  40.5310000 131.5870000
  51.4750000  40.3460000 133.0760000  71.3600000  60.3580000 127.4680000
  70.7070000  60.5800000 126.8040000  71.3330000  61.0900000 128.0850000
  86.9180000  66.9770000 137.4170000  87.3950000  67.3130000 138.1760000
  86.1510000  66.5410000 137.7900000  41.2040000  42.4310000 125.6520000
  40.8450000  43.0880000 126.2480000  42.0890000  42.7400000 125.4570000
  62.5490000  68.1420000 154.8490000  62.5920000  68.1630000 153.8930000
  63.4230000  68.4110000 155.1340000  69.5400000  74.8020000 161.2010000
  68.8300000  74.1730000 161.3340000  69.1960000  75.4170000 160.5530000
  38.1230000  86.5460000 151.4910000  38.8600000  86.3800000 150.9030000
  37.4050000  86.7990000 150.9100000  34.4360000  80.3390000 155.9030000
  35.2730000  80.2270000 156.3530000  34.1920000  81.2490000 156.0740000
  72.3290000  42.9990000 132.2460000  73.2470000  42.7900000 132.4170000
  72.1890000  43.8400000 132.6820000  79.9890000  81.1270000 136.4080000
  79.3330000  81.2670000 135.7260000  79.5990000  81.5040000 137.1970000
  83.9930000  76.5010000 127.0330000  83.8390000  76.4740000 127.9770000
  84.5340000  77.2800000 126.9000000  56.0760000  60.6320000 155.6260000
  55.7800000  60.9500000 156.4790000  55.5640000  59.8370000 155.4750000
  31.5720000  36.2290000 148.2240000  31.0000000  36.9870000 148.1040000
  31.0000000  35.4730000 148.0910000  76.7540000  55.9870000 139.5750000
  77.7010000  56.1140000 139.6370000  76.5460000  55.3790000 140.2840000
  50.6400000  62.5400000 145.3890000  49.8910000  62.2440000 144.8730000
  50.9260000  63.3450000 144.9580000  63.9890000  48.5870000 150.6070000
  64.6270000  49.3000000 150.5980000  63.1390000  49.0260000 150.6460000
  62.5050000  50.8000000 159.8930000  62.8310000  51.4740000 159.2970000
  63.2420000  50.6220000 160.4790000  52.5070000  31.2060000 125.4380000
  51.8760000  31.5880000 126.0480000  53.3260000  31.1670000 125.9330000
  70.6260000  46.1030000 147.1680000  70.4490000  45.2820000 147.6280000
  70.9400000  46.6970000 147.8500000  69.5760000  43.4120000 164.0000000
  69.3110000  43.2600000 163.0930000  70.2630000  44.0760000 163.9410000
  84.6860000  88.1320000 146.2710000  83.8070000  87.7780000 146.1390000
  84.5410000  89.0000000 146.6480000  68.0440000  78.8480000 157.9930000
  67.3810000  78.2380000 157.6680000  68.4810000  78.3730000 158.7000000
  36.2350000  80.7780000 128.2250000  35.6540000  80.9820000 128.9570000
  36.4910000  81.6330000 127.8770000  88.5290000  81.6720000 135.5690000
  89.0000000  81.5080000 136.3850000  88.4100000  80.8050000 135.1810000
  35.1790000  62.0040000 123.7390000  34.3530000  61.5840000 123.5000000
  35.0240000  62.9380000 123.5900000  76.4560000  62.8490000 135.8390000
  76.0940000  63.4950000 136.4450000  76.2500000  62.0030000 136.2390000
  70.7020000  63.0780000 138.5640000  71.2170000  63.5100000 137.8840000
  70.1000000  62.5090000 138.0840000  71.0790000  52.2200000 129.4250000
  70.6700000  51.5490000 129.9720000  70.5570000  53.0080000 129.5820000
  88.1030000  55.2930000 159.4470000  88.1440000  55.5080000 158.5150000
  88.9970000  55.4230000 159.7630000  31.0000000  57.9250000 149.2230000
  31.8740000  57.6140000 149.4600000  31.0100000  58.8580000 149.4390000
  82.8380000  54.0690000 129.5740000  82.6260000  53.8830000 128.6600000
  82.9640000  53.2060000 129.9720000  75.9400000  70.5350000 124.2660000
  75.1410000  70.7300000 124.7550000  75.9040000  71.1160000 123.5060000
  60.4940000  74.7870000 160.4320000  59.7940000  75.4130000 160.6180000
  60.1990000  74.3230000 159.6490000  75.3250000  79.0520000 132.3520000
  75.4550000  79.9850000 132.5200000  75.0700000  78.6890000 133.2000000
  86.2430000  74.3990000 129.4080000  85.5980000  75.0470000 129.1250000
  87.0260000  74.9120000 129.6080000  69.6150000  43.6490000 142.8570000
  70.3550000  43.8460000 142.2830000  68.9550000  43.2690000 142.2760000
  53.3590000  81.3640000 125.5600000  53.6550000  82.2390000 125.3110000
  52.4860000  81.5020000 125.9290000  62.6190000  88.4500000 143.9520000
  61.8480000  89.0000000 143.8110000  62.2630000  87.5990000 144.2060000
  38.6490000  77.0540000 126.7500000  39.4670000  76.7560000 126.3530000
  38.4980000  76.4450000 127.4740000  83.5580000  62.9490000 139.2420000
  83.5520000  62.5630000 140.1180000  84.4750000  62.9130000 138.9700000
  70.4920000  84.3160000 147.8960000  71.3040000  84.7170000 148.2060000
  70.7420000  83.4220000 147.6600000  85.7100000  31.0070000 137.9790000
  86.3340000  31.0000000 137.2530000  85.6860000  31.9200000 138.2660000
  71.3050000  54.9150000 144.0850000  71.5140000  54.1970000 143.4890000
  70.3490000  54.9210000 144.1290000  77.1730000  81.5560000 147.1400000
  76.3180000  81.2710000 146.8170000  77.5930000  81.9620000 146.3820000
  44.3690000  55.0110000 161.6850000  44.0320000  54.7340000 160.8330000
  44.8860000  55.7940000 161.4960000  83.4630000  35.3180000 154.4900000
  83.9430000  35.3730000 153.6640000  84.1350000  35.1350000 155.1460000
  72.2790000  44.0310000 123.8430000  73.2170000  43.9900000 124.0290000
  71.8620000  43.6870000 124.6330000  62.2910000  56.2670000 139.0530000
  61.5450000  56.7910000 139.3430000  63.0540000  56.8170000 139.2280000
  54.0510000  48.5720000 123.5390000  53.8490000  48.4500000 124.4660000
  54.5000000  49.4170000 123.5000000  84.4090000  38.5940000 155.1250000
  84.5140000  37.6630000 154.9310000  85.2770000  38.8790000 155.4130000
  57.4160000  62.3640000 136.0430000  57.5470000  63.1330000 135.4870000
  57.5250000  61.6190000 135.4510000  56.6850000  50.4630000 133.7450000
  55.7860000  50.4650000 133.4160000  56.8970000  49.5350000 133.8550000
  48.0060000  59.7260000 124.3070000  48.2450000  59.6630000 125.2320000
  47.3800000  59.0140000 124.1730000  78.0260000  37.0380000 131.8150000
  78.0050000  37.7480000 131.1740000  78.9010000  36.6590000 131.7240000
  45.3630000  62.0540000 135.3840000  45.5340000  61.7820000 136.2860000
  45.8260000  62.8880000 135.2940000  35.9670000  38.9680000 147.4750000
  35.6570000  39.4940000 148.2120000  35.9240000  38.0650000 147.7890000
  31.2890000  57.7360000 138.9510000  31.0420000  56.8630000 139.2540000
  31.4260000  57.6330000 138.0090000  43.6320000  46.6740000 144.7990000
  43.7610000  47.3380000 145.4760000  42.7370000  46.8170000 144.4910000
  73.1360000  63.4600000 136.2280000  73.6980000  64.2190000 136.3830000
  73.7070000  62.8200000 135.8040000  67.5970000  80.1400000 124.8640000
  67.4700000  79.9990000 123.9260000  66.9970000  79.5220000 125.2830000
  47.4640000  36.3360000 153.0900000  47.4240000  37.1860000 152.6520000
  48.1240000  35.8440000 152.6000000  58.9160000  83.9260000 163.8810000
  58.4540000  83.2450000 163.3920000  58.2670000  84.6190000 164.0000000
  31.0000000  43.8960000 153.4280000  31.1160000  44.6260000 154.0360000
  31.1040000  44.2880000 152.5610000  33.1530000  77.9030000 153.1510000
  32.6850000  77.0690000 153.1910000  33.0980000  78.2530000 154.0400000
  39.5550000  49.5080000 160.0920000  40.3040000  50.0160000 159.7800000
  38.8170000  50.1160000 160.0450000  53.1770000  83.3610000 133.3690000
  53.3850000  83.1900000 134.2870000  54.0180000  83.5840000 132.9700000
  67.4750000  31.5180000 153.1130000  66.8760000  31.0000000 152.5750000
  66.9090000  31.9580000 153.7470000  43.4580000  45.8750000 135.2250000
  43.7690000  46.7770000 135.3080000  44.0970000  45.4530000 134.6500000
  43.3720000  64.5970000 163.9640000  43.4410000  65.5500000 164.0000000
  42.4300000  64.4240000 163.9730000  86.5960000  35.5800000 126.3360000
  87.0720000  35.4780000 127.1600000  87.2780000  35.7460000 125.6840000
  64.0210000  81.6640000 132.6540000  64.8940000  81.7750000 132.2770000
  63.4770000  82.2990000 132.1880000  77.4570000  70.7990000 149.6020000
  77.1520000  70.1210000 148.9980000  78.4110000  70.7180000 149.5920000
  75.6450000  71.2630000 151.4270000  76.1300000  71.7880000 152.0640000
  75.2050000  71.9060000 150.8710000  77.0130000  62.2960000 123.8960000
  76.8980000  63.1590000 123.5000000  77.8590000  61.9910000 123.5660000
  50.3830000  58.1830000 123.5000000  49.5460000  57.8250000 123.7970000
  50.3690000  59.0960000 123.7900000  76.1490000  47.0440000 125.4910000
  76.8180000  46.7700000 124.8640000  75.8870000  47.9160000 125.1970000
  56.4270000  33.8710000 143.1740000  56.1150000  34.5340000 142.5590000
  57.3420000  33.7310000 142.9320000  83.2440000  77.1720000 134.6190000
  82.9660000  77.8660000 134.0210000  82.6170000  77.2130000 135.3410000
  37.9470000  46.1490000 129.2210000  38.4810000  45.5310000 128.7240000
  38.1310000  47.0000000 128.8230000  64.1360000  82.7810000 148.5770000
  64.6880000  82.0290000 148.3640000  63.2590000  82.5250000 148.2900000
  50.3250000  40.2250000 138.4890000  49.6690000  40.8340000 138.1510000
  50.7090000  40.6770000 139.2400000  73.8480000  59.4380000 151.9690000
  72.9190000  59.2700000 152.1250000  73.8760000  60.3300000 151.6200000
  62.5580000  56.3450000 150.9820000  62.9970000  56.1820000 150.1480000
  63.1510000  56.9290000 151.4550000  33.3650000  70.0540000 161.2940000
  34.1590000  69.6050000 161.5840000  32.6510000  69.5740000 161.7130000
  74.3830000  61.6340000 129.8320000  75.2740000  61.4580000 130.1310000
  74.4130000  62.5330000 129.5030000  43.7510000  67.8840000 150.4120000
  42.8590000  68.0920000 150.1350000  43.6660000  67.6480000 151.3360000
  49.1400000  33.8780000 150.1610000  49.0790000  34.7410000 150.5700000
  50.0310000  33.5840000 150.3520000  66.0440000  64.0810000 151.5370000
  66.3270000  64.9140000 151.9120000  66.4070000  63.4180000 152.1250000
  31.0320000  45.9140000 160.6870000  31.9300000  45.9570000 160.3600000
  31.0960000  45.4080000 161.4980000  64.0930000  31.0060000 163.2250000
  64.6520000  31.0630000 164.0000000  64.6660000  31.2490000 162.4980000
  89.0000000  45.5790000 141.0770000  88.1040000  45.9030000 140.9870000
  88.9350000  44.8680000 141.7170000  54.3170000  55.8570000 146.7460000
  55.2310000  56.0820000 146.5750000  53.8790000  56.7010000 146.8540000
  84.3440000  31.8560000 129.8870000  83.9830000  31.1370000 130.4050000
  84.5060000  32.5530000 130.5230000  37.3840000  47.6390000 156.5210000
  38.0740000  46.9790000 156.4630000  36.5700000  47.1350000 156.5180000
  78.1070000  38.3100000 141.7590000  77.4840000  38.4490000 141.0460000
  78.7400000  39.0230000 141.6670000  33.7900000  70.9870000 144.9980000
  33.8520000  70.0470000 145.1650000  33.4150000  71.3490000 145.8010000
  46.9090000  76.5790000 129.3790000  47.1850000  75.7000000 129.6380000
  47.7200000  77.0200000 129.1240000  58.8920000  49.0620000 127.4060000
  58.7250000  49.9190000 127.7990000  58.2260000  48.4890000 127.7870000
  56.7570000  34.2080000 146.1140000  57.4330000  34.2140000 145.4370000
  57.2080000  33.9000000 146.9010000  41.5570000  48.9310000 161.9970000
  42.3250000  48.8220000 162.5570000  41.6120000  48.2090000 161.3710000
  89.0000000  52.3670000 161.9010000  88.0960000  52.0530000 161.9010000
  88.9270000  53.3090000 161.7470000  75.4480000  57.9600000 123.5000000
  76.3110000  57.5460000 123.5120000  74.8300000  57.2290000 123.5410000
  87.3780000  63.8620000 163.9950000  86.6980000  63.1890000 164.0000000
  86.8950000  64.6900000 163.9970000  73.1970000  49.2710000 160.4770000
  73.4880000  49.7020000 161.2810000  73.4880000  49.8530000 159.7750000
  67.9290000  38.8740000 151.8880000  67.0800000  38.4330000 151.9260000
  67.7130000  39.8040000 151.8120000  31.6090000  88.9750000 134.1320000
  31.0250000  88.9190000 133.3770000  31.0250000  88.9480000 134.8910000
  84.4190000  73.5890000 149.8590000  83.9920000  73.5560000 149.0040000
  84.0020000  72.8890000 150.3630000  83.4740000  43.4430000 147.5100000
  83.7270000  44.1730000 146.9450000  82.8960000  43.8350000 148.1650000
  54.1270000  72.5800000 156.0440000  53.7150000  71.7170000 156.0990000
  54.0670000  72.9310000 156.9320000  62.2430000  43.1360000 138.8640000
  61.7200000  43.9190000 138.6940000  63.1410000  43.4600000 138.9440000
  31.7390000  80.8230000 161.8870000  31.0000000  81.3390000 162.2090000
  31.3570000  79.9750000 161.6580000  59.6510000  33.2100000 146.0050000
  59.1920000  32.4430000 146.3460000  59.7020000  33.8110000 146.7490000
  70.1860000  37.9840000 135.1460000  69.7330000  38.0930000 135.9820000
  70.4470000  38.8700000 134.8970000  34.4570000  88.9670000 151.7870000
  34.4000000  88.9730000 152.7420000  33.5460000  89.0000000 151.4920000
  61.0860000  84.0830000 158.6150000  60.6240000  83.8900000 157.8000000
  61.9020000  83.5850000 158.5520000  84.8170000  83.2200000 123.5250000
  85.1950000  82.3400000 123.5230000  83.8700000  83.0740000 123.5000000
  52.5250000  35.4490000 136.5940000  53.0840000  35.8820000 137.2390000
  53.0870000  35.3330000 135.8280000  56.0680000  86.0190000 137.8140000
  56.9650000  85.7440000 138.0010000  56.1320000  86.9630000 137.6660000
  40.7720000  40.2480000 128.0760000  40.9590000  41.1520000 127.8260000
  39.8310000  40.2380000 128.2520000  56.2120000  43.4450000 153.3570000
  55.4600000  42.8820000 153.5380000  56.7210000  42.9640000 152.7040000
  59.2040000  49.7480000 155.9470000  58.3030000  49.4760000 156.1210000
  59.1550000  50.7020000 155.8710000  83.3610000  66.2480000 142.8620000
  83.6930000  67.1020000 143.1390000  83.1620000  66.3570000 141.9320000
  88.0510000  74.4230000 155.7930000  89.0000000  74.4480000 155.6700000
  87.7470000  73.7620000 155.1700000  37.8410000  56.6730000 158.2960000
  38.0270000  57.3690000 158.9260000  38.4950000  55.9990000 158.4840000
  42.5660000  52.9550000 139.4470000  42.0430000  53.7200000 139.6860000
  43.4070000  53.3190000 139.1670000  85.1960000  51.4470000 147.3480000
  84.6130000  51.2760000 146.6090000  84.9200000  50.8240000 148.0210000
  80.7200000  52.1810000 154.1210000  81.2190000  51.4440000 154.4730000
  81.0910000  52.9500000 154.5540000  45.9560000  43.8010000 150.9080000
  45.7620000  42.8640000 150.9140000  45.1330000  44.2150000 150.6450000
  66.2420000  61.9200000 127.9400000  66.1140000  62.5610000 128.6390000
  65.9110000  62.3540000 127.1530000  35.7200000  50.0420000 161.5000000
  35.1140000  50.7660000 161.3480000  36.5760000  50.4610000 161.5960000
  35.9400000  36.3150000 125.9680000  35.2170000  35.9550000 126.4820000
  36.0900000  37.1840000 126.3400000  71.3410000  34.5100000 123.5000000
  71.9660000  35.2340000 123.5000000  70.4820000  34.9340000 123.5000000
  55.3740000  65.8600000 154.3490000  56.0200000  65.1620000 154.2410000
  54.5360000  65.4020000 154.4230000  35.8750000  81.4430000 158.4520000
  36.8240000  81.3230000 158.4510000  35.7510000  82.3740000 158.2630000
  87.2330000  41.7640000 154.8620000  86.8680000  42.3250000 155.5450000
  88.0420000  42.2030000 154.5980000  58.4240000  72.9000000 154.1880000
  57.5530000  72.5970000 154.4420000  58.9370000  72.0980000 154.0870000
  78.9860000  31.0000000 149.7630000  78.9940000  31.0870000 150.7160000
  78.9540000  31.9010000 149.4400000  87.4000000  48.7260000 123.5750000
  88.3470000  48.8460000 123.5000000  87.2660000  48.4380000 124.4780000
  81.6880000  64.4850000 139.9170000  81.1650000  64.3740000 139.1230000
  82.3720000  65.1080000 139.6680000  71.9080000  57.2760000 154.2840000
  71.1880000  56.7640000 154.6520000  71.5410000  57.6740000 153.4950000
  63.8470000  66.1070000 160.2480000  63.4070000  65.3000000 160.5150000
  64.6970000  65.8180000 159.9140000  78.8480000  31.5040000 154.0720000
  78.6860000  31.0000000 154.8690000  78.4200000  31.0000000 153.3790000
  81.2270000  33.6820000 161.3530000  80.3780000  33.6270000 160.9140000
  81.0130000  33.7040000 162.2860000  43.2310000  86.6670000 125.9900000
  42.7600000  86.2560000 126.7140000  44.1480000  86.4330000 126.1360000
  44.6950000  44.1790000 163.8240000  44.8700000  44.5640000 162.9660000
  43.7770000  44.3910000 164.0000000  59.8190000  58.2200000 140.4740000
  60.3300000  59.0210000 140.5840000  58.9110000  58.5200000 140.4160000
  73.3470000  66.3000000 149.1700000  74.2540000  66.2350000 149.4670000
  73.1840000  67.2400000 149.0980000  55.2250000  82.4040000 147.3720000
  56.1660000  82.4580000 147.2060000  54.8450000  83.0920000 146.8260000
  87.1830000  31.0320000 130.4630000  86.8430000  31.0000000 129.5690000
  86.4030000  31.0000000 131.0170000  44.2580000  76.2670000 145.4590000
  43.6000000  75.8290000 144.9200000  44.1470000  75.8850000 146.3300000
  81.1720000  83.8200000 144.4210000  80.7040000  84.0760000 143.6270000
  80.5850000  83.2030000 144.8590000  65.3130000  88.7200000 148.9020000
  65.8420000  89.0000000 148.1560000  65.8130000  89.0000000 149.6690000
  76.8350000  52.9700000 160.6220000  76.8980000  52.2580000 161.2580000
  77.5340000  52.7920000 159.9920000  85.7930000  67.4140000 131.0480000
  86.1710000  68.2110000 130.6770000  85.2060000  67.0870000 130.3660000
  53.1690000  56.1510000 155.2690000  53.6370000  56.5920000 154.5600000
  52.3420000  56.6270000 155.3430000  31.0050000  37.3810000 153.4770000
  31.0000000  38.2600000 153.8560000  31.2970000  36.8130000 154.1910000
  58.8370000  52.2180000 145.7380000  58.2860000  51.5260000 146.1020000
  58.3320000  53.0210000 145.8660000  76.9800000  62.0500000 161.8470000
  77.2900000  62.4780000 161.0490000  77.5310000  62.4120000 162.5430000
  42.5330000  31.5780000 159.6500000  43.1860000  31.0000000 160.0430000
  41.8010000  31.0010000 159.4330000  86.3780000  64.2470000 130.3260000
  86.7280000  64.8740000 130.9580000  86.8710000  64.4170000 129.5220000
  31.7020000  33.6320000 128.5010000  31.7110000  32.9210000 129.1420000
  31.0000000  33.3990000 127.8940000  50.2040000  52.2060000 154.4060000
  49.3200000  52.1170000 154.7630000  50.7420000  51.6340000 154.9540000
  67.0870000  67.7770000 150.8570000  66.7810000  68.5130000 151.3860000
  67.6130000  68.1810000 150.1660000  82.3830000  78.2130000 152.7240000
  82.7940000  78.7570000 152.0520000  82.0080000  78.8400000 153.3430000
  77.1450000  33.9150000 130.6360000  77.4620000  34.7670000 130.9340000
  76.2080000  34.0460000 130.4880000  89.0000000  74.4580000 126.9410000
  88.7370000  74.8160000 127.7880000  88.9510000  75.2030000 126.3400000
  45.1120000  62.3650000 147.5840000  44.7790000  61.5620000 147.1840000
  44.3570000  62.9550000 147.6020000  31.0480000  45.1810000 143.9690000
  31.0130000  45.1010000 144.9220000  31.0000000  44.2790000 143.6500000
  55.7350000  49.5520000 140.0110000  55.9880000  50.4730000 139.9480000
  56.5660000  49.0780000 140.0530000  67.9810000  63.7770000 158.6390000
  68.6650000  64.2230000 158.1390000  68.2870000  62.8720000 158.7090000
  49.2700000  47.3310000 153.2310000  48.6760000  47.3880000 153.9800000
  49.8610000  48.0770000 153.3370000  41.5040000  65.5980000 133.4860000
  40.8420000  65.2360000 134.0740000  41.4480000  65.0560000 132.6990000
  53.6570000  60.6290000 150.2560000  53.1970000  61.2620000 150.8060000
  53.0880000  60.5130000 149.4950000  49.4400000  66.2510000 163.9800000
  48.4940000  66.1450000 163.8780000  49.7810000  65.3560000 164.0000000
  84.5790000  40.8310000 143.9990000  84.5570000  41.2780000 143.1530000
  85.5110000  40.7570000 144.2070000  60.6780000  86.3780000 125.9010000
  60.9680000  85.4680000 125.8360000  59.7730000  86.3200000 126.2090000
  51.7570000  61.4700000 161.2150000  52.2270000  60.9790000 161.8880000
  51.5790000  62.3200000 161.6180000  65.0000000  78.1870000 154.2210000
  64.4080000  77.5160000 153.8820000  64.5640000  78.5160000 155.0080000
  64.4070000  49.4320000 156.2540000  64.4080000  48.4900000 156.4210000
  65.2560000  49.7340000 156.5790000  31.8380000  89.0000000 157.5040000
  32.6010000  88.8910000 156.9380000  31.0890000  88.9550000 156.9090000
  64.3720000  59.7730000 142.2670000  64.2400000  60.0190000 143.1830000
  65.1450000  60.2680000 141.9950000  63.9540000  77.0100000 161.9170000
  63.4270000  77.7190000 161.5480000  64.8230000  77.3940000 162.0350000
  61.6990000  65.7270000 125.5020000  60.7470000  65.7520000 125.4070000
  61.9690000  66.6440000 125.4560000  75.5920000  45.1530000 161.6700000
  75.7870000  44.2560000 161.4000000  76.4280000  45.4960000 161.9880000
  43.5620000  41.3230000 154.3980000  42.9340000  41.9660000 154.0690000
  44.4110000  41.7610000 154.3300000  80.9540000  68.5190000 136.1560000
  80.8120000  67.7220000 136.6660000  81.4530000  68.2290000 135.3920000
  42.4710000  46.3120000 140.4570000  43.4190000  46.3550000 140.5810000
  42.3590000  45.9490000 139.5790000  53.0060000  43.7430000 152.2110000
  52.3710000  43.0400000 152.3520000  52.4720000  44.5280000 152.0870000
  77.2320000  33.0220000 156.0070000  76.3460000  33.3040000 155.7820000
  77.7840000  33.3920000 155.3180000  88.4210000  69.6900000 124.8530000
  89.0000000  69.5820000 124.0980000  89.0000000  69.9750000 125.5610000
  79.9150000  68.3280000 158.3340000  79.4880000  69.1850000 158.3130000
  80.8500000  68.5280000 158.3850000  86.5010000  78.0520000 134.8170000
  86.6770000  78.9430000 135.1170000  85.5790000  78.0630000 134.5580000
  88.7410000  58.1150000 149.6640000  89.0000000  57.1940000 149.6770000
  87.7840000  58.0950000 149.6480000  54.4410000  65.5280000 157.2000000
  54.4140000  66.1210000 157.9510000  55.3220000  65.6370000 156.8400000
  72.0980000  42.3250000 163.6890000  72.8240000  42.8950000 163.9410000
  72.3550000  41.4570000 164.0000000  63.5880000  73.6720000 141.6620000
  63.1570000  74.1750000 142.3540000  63.4470000  74.1870000 140.8680000
  59.5810000  86.0300000 161.7110000  58.7570000  85.5440000 161.7300000
  60.2110000  85.4200000 161.3250000  49.2770000  41.0430000 125.4020000
  50.0260000  40.6980000 124.9180000  49.5910000  41.8670000 125.7760000
  83.0370000  45.1860000 150.4250000  82.1480000  44.8410000 150.3480000
  83.3330000  44.8960000 151.2880000  57.0820000  70.7680000 137.7010000
  57.2690000  69.8330000 137.7880000  56.1560000  70.8060000 137.4600000
  52.7300000  55.7620000 157.6990000  53.6690000  55.9430000 157.7090000
  52.3710000  56.3170000 158.3920000  81.0250000  70.5580000 164.0000000
  80.1150000  70.8540000 164.0000000  80.9660000  69.6020000 164.0000000
  33.3770000  84.1920000 125.0150000  33.8710000  84.2720000 124.1990000
  33.2140000  85.0950000 125.2860000  31.0940000  57.7500000 146.3220000
  31.0000000  57.1750000 145.5630000  31.0040000  58.6350000 145.9650000
  40.4660000  61.5770000 160.2970000  40.2740000  61.0310000 159.5350000
  39.8590000  62.3140000 160.2220000  31.1120000  81.3690000 134.1390000
  32.0180000  81.6760000 134.1730000  31.0000000  80.8590000 134.9420000
  73.3600000  75.3900000 128.6180000  73.7710000  74.5470000 128.8080000
  74.0910000  76.0050000 128.5570000  60.5020000  63.2680000 156.5930000
  61.4170000  62.9890000 156.6180000  60.0030000  62.4510000 156.5810000
  84.3150000  38.9730000 141.8180000  84.0050000  38.5770000 142.6320000
  84.6640000  38.2390000 141.3120000  88.5170000  60.6710000 139.0550000
  89.0000000  59.8620000 138.8860000  87.6160000  60.3850000 139.2070000
  33.8460000  32.4130000 138.0980000  32.9450000  32.7100000 138.2170000
  33.7620000  31.5310000 137.7340000  31.6460000  81.1700000 155.4420000
  32.1080000  80.5500000 154.8780000  31.0000000  81.5820000 154.8680000
  46.3720000  46.1660000 155.4260000  46.3850000  47.0530000 155.0670000
  45.6880000  46.1880000 156.0960000  45.7180000  72.4960000 147.7080000
  45.3960000  71.6180000 147.5030000  44.9260000  73.0250000 147.8040000
  47.6330000  79.8200000 149.9630000  46.6830000  79.9320000 149.9610000
  47.9800000  80.7120000 149.9220000  52.8010000  69.6340000 157.3000000
  53.3420000  70.0760000 157.9540000  52.5220000  68.8240000 157.7270000
  75.6750000  84.4720000 129.7200000  75.0280000  84.7510000 129.0720000
  75.1590000  84.0500000 130.4070000  45.4730000  88.9850000 162.8270000
  45.7260000  88.0850000 162.6240000  45.3180000  88.9830000 163.7720000
  88.6280000  62.0030000 156.3390000  88.9990000  61.4890000 155.6220000
  89.0000000  62.8780000 156.2250000  68.7630000  76.7020000 141.6140000
  68.3460000  76.7220000 142.4750000  68.5970000  77.5700000 141.2460000
  59.5680000  46.2130000 156.9640000  60.1390000  45.7910000 157.6050000
  60.0150000  47.0310000 156.7450000  69.9240000  55.2160000 163.9810000
  69.8770000  54.2610000 163.9290000  69.0090000  55.5000000 164.0000000
  50.5220000  76.9560000 146.4530000  50.7730000  77.8750000 146.3600000
  49.5760000  76.9790000 146.5950000  42.7310000  33.6990000 157.7220000
  43.3930000  34.3810000 157.8330000  41.9350000  34.1730000 157.4810000
  86.3590000  85.0280000 157.6940000  85.6140000  84.5440000 158.0490000
  86.3420000  85.8670000 158.1560000  88.4200000  42.7510000 164.0000000
  89.0000000  43.5010000 163.8690000  88.9850000  41.9870000 163.8820000
  87.9250000  72.2090000 127.1270000  87.6780000  72.0920000 126.2090000
  88.8190000  71.8710000 127.1800000  54.5070000  63.4650000 151.9720000
  53.6140000  63.5800000 151.6470000  54.9870000  64.2180000 151.6270000
  40.0500000  74.9680000 151.3090000  39.4110000  74.2570000 151.2630000
  40.2330000  75.1860000 150.3940000  79.9270000  86.2960000 149.0440000
  79.2040000  86.4770000 148.4440000  79.7010000  85.4560000 149.4450000
  66.1170000  54.3510000 135.3610000  66.0680000  54.0890000 134.4410000
  66.7530000  55.0670000 135.3730000  31.0000000  41.1800000 143.3230000
  31.1380000  41.8690000 142.6740000  31.0000000  40.3680000 142.8150000
  48.3720000  85.0610000 135.3100000  48.7620000  85.3410000 136.1380000
  49.0370000  84.5010000 134.9080000  85.3850000  63.1850000 126.2580000
  84.7880000  63.6590000 125.6790000  85.8730000  62.6030000 125.6760000
  41.8760000  78.4210000 126.3360000  41.6970000  78.9610000 127.1060000
  41.1120000  78.5480000 125.7720000  61.0890000  39.7360000 137.2190000
  61.8700000  39.6350000 136.6750000  61.0870000  40.6600000 137.4680000
  43.1290000  47.9050000 137.4830000  43.5480000  47.7600000 138.3310000
  42.3910000  47.2950000 137.4720000  61.6520000  79.0840000 143.4760000
  62.4010000  78.9130000 144.0470000  60.8930000  78.7880000 143.9790000
  58.1180000  79.7200000 140.6410000  58.3310000  78.9560000 141.1760000
  58.9170000  79.8950000 140.1430000  56.3420000  83.6030000 124.4680000
  56.0270000  82.7270000 124.6890000  56.2910000  83.6430000 123.5120000
  73.3890000  51.3050000 147.9420000  74.0800000  50.8920000 148.4600000
  73.5400000  52.2440000 148.0470000  70.0670000  72.8570000 158.8950000
  69.2430000  73.3430000 158.8750000  70.7230000  73.5080000 159.1450000
  66.3470000  62.6860000 147.0500000  65.4770000  62.5970000 146.6620000
  66.6520000  61.7850000 147.1650000  62.2910000  76.4430000 149.7730000
  62.6590000  76.6310000 150.6360000  62.5320000  77.2000000 149.2390000
  76.5430000  48.0070000 139.5830000  76.2550000  47.6410000 140.4190000
  75.7340000  48.2730000 139.1450000  35.8660000  65.1280000 135.8520000
  34.9130000  65.0510000 135.8220000  36.0290000  66.0690000 135.9140000
  58.0970000  37.1810000 147.0470000  58.7550000  37.6000000 147.6020000
  58.6020000  36.6100000 146.4670000  51.3510000  38.2720000 134.6080000
  50.5980000  37.9420000 135.0980000  52.0710000  38.2630000 135.2390000
  44.8350000  58.3100000 157.9090000  44.5320000  59.1320000 158.2950000
  44.1120000  57.6980000 158.0490000  60.0850000  54.8430000 145.3720000
  59.8610000  55.0670000 146.2750000  61.0110000  54.5990000 145.4080000
  43.0030000  37.5240000 136.7250000  42.9700000  38.4250000 136.4050000
  42.3580000  37.4970000 137.4320000  69.8080000  60.1570000 158.2050000
  70.6520000  60.5830000 158.0610000  69.5290000  60.4610000 159.0690000
  67.0300000  33.5590000 137.3280000  66.4260000  32.9080000 136.9720000
  66.9580000  33.4590000 138.2770000  53.5600000  80.9080000 130.8440000
  53.2210000  81.7730000 131.0750000  53.9030000  81.0150000 129.9560000
  80.8250000  32.7850000 150.8800000  80.4040000  33.2920000 151.5730000
  80.8510000  33.3780000 150.1290000  56.0550000  48.5760000 154.6930000
  55.1310000  48.8180000 154.6340000  56.0510000  47.6180000 154.7050000
  56.2050000  61.5700000 129.3810000  56.4820000  61.1260000 130.1830000
  56.0840000  60.8630000 128.7460000  31.2460000  80.8760000 142.7240000
  31.0580000  81.4200000 143.4890000  31.0000000  81.4210000 141.9760000
  42.1900000  63.4330000 161.6900000  41.3490000  63.8780000 161.7860000
  42.4460000  63.5950000 160.7820000  46.0050000  69.5180000 152.4970000
  45.1660000  69.1530000 152.7780000  46.5350000  68.7540000 152.2710000
  40.5090000  81.7820000 141.0210000  39.7570000  81.4160000 141.4860000
  40.2690000  82.6940000 140.8560000  68.8850000  89.0000000 129.0260000
  69.2690000  88.3020000 128.4960000  67.9550000  88.9920000 128.7970000
  61.5730000  53.0100000 136.6050000  62.0360000  53.8460000 136.6670000
  62.2650000  52.3490000 136.6580000  66.6680000  66.8180000 146.2130000
  66.2150000  65.9910000 146.3750000  66.0840000  67.3010000 145.6270000
  38.5390000  60.5090000 126.1770000  39.4540000  60.7080000 125.9800000
  38.5560000  59.6140000 126.5170000  48.3010000  38.8730000 135.8690000
  47.4890000  38.3670000 135.8280000  48.1990000  39.4300000 136.6410000
  63.8630000  39.5860000 158.3870000  64.4630000  38.9180000 158.0560000
  63.4520000  39.9500000 157.6030000  66.8770000  72.1590000 143.4570000
  67.0380000  71.3010000 143.8490000  67.0770000  72.7840000 144.1540000
  54.8210000  61.4680000 163.9740000  53.9810000  61.0140000 163.9110000
  55.4720000  60.7670000 164.0000000  71.0980000  62.4500000 131.0420000
  70.5880000  61.6870000 131.3110000  71.7300000  62.1060000 130.4100000
  59.8370000  33.2520000 135.7950000  60.2100000  34.0660000 136.1320000
  60.3720000  33.0420000 135.0280000  54.1350000  45.7990000 163.6320000
  53.9920000  44.8800000 163.8570000  53.2880000  46.2180000 163.7870000
  80.8790000  58.3280000 145.6440000  80.6560000  58.9740000 146.3140000
  80.0390000  58.0870000 145.2540000  33.5630000  36.7850000 143.0820000
  34.1440000  36.6920000 142.3280000  33.2150000  37.6740000 143.0080000
  35.7940000  50.1920000 147.6750000  34.8500000  50.3350000 147.6130000
  35.9380000  49.9250000 148.5830000  80.7050000  54.3530000 159.3550000
  79.7910000  54.2770000 159.0820000  80.8420000  55.2930000 159.4750000
  52.7260000  48.6590000 155.3640000  52.4610000  48.1290000 154.6120000
  53.1490000  48.0380000 155.9580000  62.6840000  34.7490000 140.5560000
  62.7390000  35.6540000 140.2520000  63.4750000  34.6240000 141.0810000
  38.5000000  88.7960000 152.8540000  37.8200000  89.0000000 152.2120000
  39.3220000  88.9850000 152.4010000  79.5750000  46.0990000 135.1900000
  79.0890000  45.2760000 135.1370000  78.9690000  46.7580000 134.8500000
  60.6100000  79.1210000 156.1000000  60.1890000  79.2860000 155.2570000
  60.2980000  78.2530000 156.3590000  61.3650000  72.2350000 130.8460000
  61.0910000  73.1100000 131.1210000  60.9170000  71.6430000 131.4510000
  65.2860000  84.5700000 158.6110000  64.3630000  84.6720000 158.3820000
  65.3330000  84.8200000 159.5350000  77.7820000  52.5140000 151.4530000
  78.6230000  52.0630000 151.3930000  77.9970000  53.4390000 151.3300000
  69.6470000  39.8300000 163.9970000  69.9620000  40.7330000 163.9670000
  70.4430000  39.2980000 164.0000000  38.7390000  49.5030000 139.9950000
  39.4650000  48.9930000 139.6370000  38.1380000  49.6150000 139.2580000
  88.0530000  46.9860000 153.6320000  87.6980000  47.4990000 154.3580000
  89.0000000  47.1140000 153.6870000  82.8100000  85.4010000 143.3870000
  82.7750000  85.8330000 142.5340000  83.4050000  84.6620000 143.2580000
  57.3950000  69.3080000 155.1960000  58.2620000  69.5850000 155.4900000
  57.1180000  69.9920000 154.5860000  85.7380000  31.0700000 145.4340000
  86.5750000  31.0240000 144.9730000  85.0790000  31.0000000 144.7420000
  57.6420000  74.8720000 147.7970000  58.2130000  74.2470000 147.3510000
  56.7810000  74.4540000 147.7960000  70.8930000  44.4500000 154.9260000
  70.4960000  43.6070000 154.7080000  71.8140000  44.3520000 154.6860000
  46.2010000  67.5360000 123.5660000  45.6830000  66.7310000 123.5700000
  47.1100000  67.2350000 123.5410000  76.3240000  88.9080000 126.7200000
  75.6000000  88.9800000 126.0980000  77.1120000  89.0000000 126.1840000
  31.0000000  50.3250000 163.9860000  31.3960000  49.4540000 164.0000000
  31.7450000  50.9270000 163.9750000  53.7010000  70.9650000 143.8100000
  53.4030000  71.6240000 143.1840000  54.6520000  70.9380000 143.6950000
  87.9380000  31.0300000 139.3010000  88.8590000  31.0000000 139.5570000
  87.4570000  31.0000000 140.1280000  68.1620000  63.7150000 126.0650000
  68.4120000  62.7920000 126.1010000  68.1160000  63.9870000 126.9820000
  52.8760000  39.7390000 140.8800000  52.8790000  40.6640000 140.6340000
  52.1760000  39.6660000 141.5300000  60.7780000  55.8680000 135.8180000
  61.2430000  55.5780000 135.0330000  60.9440000  56.8100000 135.8610000
  33.5140000  40.1560000 142.9830000  34.3010000  40.5150000 143.3930000
  33.5300000  40.5010000 142.0900000  45.8500000  40.5440000 130.2600000
  45.9550000  40.7690000 131.1840000  46.4880000  39.8470000 130.1080000
  80.1250000  39.9350000 131.8970000  79.1750000  39.8370000 131.9580000
  80.4240000  39.1250000 131.4830000  76.6780000  86.1790000 156.7480000
  77.1940000  86.7510000 157.3150000  76.4290000  86.7350000 156.0090000
  44.2730000  55.4890000 125.8430000  45.0740000  55.7040000 126.3200000
  43.7570000  54.9720000 126.4620000  76.1260000  54.8980000 152.6600000
  75.9330000  54.6930000 153.5750000  76.9990000  55.2910000 152.6820000
  44.7250000  43.6620000 131.7340000  43.7970000  43.7020000 131.5030000
  44.8200000  42.8330000 132.2050000  82.3730000  48.1080000 130.3500000
  83.2330000  48.5210000 130.4320000  81.7590000  48.8420000 130.2980000
  83.2350000  43.0820000 144.2790000  83.9950000  43.6640000 144.2730000
  82.5110000  43.6290000 143.9740000  56.0760000  35.4990000 125.8330000
  55.7470000  36.2670000 125.3660000  55.3760000  34.8500000 125.7500000
  38.3140000  38.7700000 123.5630000  39.1140000  38.2480000 123.5000000
  38.6220000  39.6760000 123.6040000  80.3330000  61.1690000 128.4490000
  80.0570000  60.4760000 129.0490000  80.7330000  60.7040000 127.7140000
  89.0000000  79.4680000 163.9450000  88.9440000  79.2750000 163.0100000
  88.9100000  80.4190000 164.0000000  31.9170000  68.5600000 139.3510000
  32.1560000  68.1200000 140.1670000  31.0000000  68.8070000 139.4710000
  67.7130000  84.8120000 157.9460000  68.2960000  85.2720000 157.3430000
  68.0610000  83.9210000 157.9840000  80.3560000  66.2520000 150.6750000
  80.3170000  65.3010000 150.5750000  81.2770000  66.4360000 150.8620000
  78.0410000  31.7180000 161.4660000  77.4150000  31.0000000 161.5630000
  78.2120000  31.7610000 160.5250000  76.1680000  31.0000000 149.5920000
  76.6840000  31.0790000 148.7900000  76.5970000  31.5890000 150.2130000
  33.4210000  82.2010000 159.3050000  33.3820000  81.5830000 158.5750000
  33.2990000  83.0590000 158.8990000  82.0330000  36.0280000 123.7330000
  82.8640000  35.5530000 123.7290000  81.3920000  35.3880000 124.0430000
  87.7050000  39.3090000 154.9080000  88.5840000  39.5780000 154.6420000
  87.8510000  38.6050000 155.5410000  31.5860000  37.1750000 150.7760000
  31.0000000  37.9260000 150.6860000  31.0000000  36.4250000 150.8800000
  50.1980000  31.8060000 164.0000000  50.1330000  32.4610000 163.3050000
  49.7220000  31.0470000 163.6610000  67.3980000  46.2000000 126.7460000
  66.8990000  46.3760000 125.9480000  66.9810000  46.7450000 127.4140000
  48.9140000  66.6820000 150.9750000  48.6030000  65.9470000 150.4460000
  48.2150000  67.3330000 150.9170000  83.1360000  31.8320000 159.3430000
  82.7030000  31.0000000 159.1540000  82.4200000  32.4350000 159.5430000
  70.4380000  34.5620000 126.7060000  71.0560000  34.2420000 126.0490000
  70.6050000  34.0200000 127.4770000  82.7410000  46.0790000 161.4290000
  83.5030000  45.5810000 161.7230000  83.1060000  46.7770000 160.8840000
  69.3300000  72.5090000 135.6620000  68.7120000  73.2050000 135.8820000
  68.7800000  71.7480000 135.4790000  63.0030000  61.5710000 137.3940000
  62.9210000  61.2000000 136.5150000  62.2240000  62.1180000 137.4970000
  39.6350000  41.8380000 135.0530000  39.9860000  42.4970000 135.6520000
  40.2050000  41.8840000 134.2850000  49.5360000  69.0770000 155.9080000
  49.1460000  69.7560000 155.3570000  50.2570000  69.5190000 156.3580000
  61.3630000  85.8190000 163.5250000  60.5880000  86.1240000 163.9980000
  61.6370000  85.0320000 163.9970000  65.6100000  44.8490000 146.7590000
  65.1730000  44.0180000 146.9460000  66.4040000  44.8280000 147.2930000
  72.4220000  42.0370000 153.7750000  72.7980000  41.7740000 154.6150000
  72.5370000  41.2720000 153.2110000  36.3520000  32.0340000 123.8930000
  36.9490000  32.6710000 123.5000000  36.6860000  31.1830000 123.6060000
  36.7170000  70.1240000 156.1310000  37.2360000  69.3250000 156.0420000
  36.4980000  70.3690000 155.2320000  65.6920000  60.5060000 156.0800000
  65.9930000  59.9870000 155.3350000  65.0490000  61.1100000 155.7070000
  77.8330000  55.8800000 149.8330000  77.8570000  56.4200000 150.6230000
  78.6430000  55.3710000 149.8650000  61.8260000  58.5740000 150.1180000
  62.6370000  59.0470000 149.9320000  61.1540000  59.2550000 150.1510000
  76.2400000  81.1920000 163.9680000  76.3510000  82.1420000 163.9470000
  75.2920000  81.0610000 164.0000000  81.8920000  57.3540000 128.6810000
  81.0890000  56.8350000 128.7130000  81.5890000  58.2610000 128.6230000
  31.6250000  49.4350000 146.9350000  31.5980000  50.0240000 146.1810000
  32.5330000  49.4750000 147.2380000  48.3030000  73.4370000 155.1160000
  47.9690000  72.9780000 155.8870000  47.5540000  73.4800000 154.5200000
  83.1420000  71.2700000 148.4540000  82.6050000  70.6930000 147.9120000
  83.3240000  70.7580000 149.2430000  39.8450000  33.5900000 144.2360000
  39.5920000  33.9710000 143.3950000  39.1220000  33.8060000 144.8250000
  86.9570000  33.9980000 161.1220000  86.3040000  33.6750000 161.7440000
  87.7900000  33.6610000 161.4520000  50.1730000  70.9210000 130.4060000
  50.6710000  71.7380000 130.4370000  49.2570000  71.1960000 130.4420000
  71.8860000  85.5140000 145.1010000  71.9290000  84.5690000 144.9570000
  72.1420000  85.6290000 146.0170000  51.0260000  49.3270000 146.1240000
  51.6660000  49.1520000 146.8140000  50.9720000  48.5060000 145.6340000
  78.8390000  84.0730000 160.6400000  78.1930000  83.8560000 159.9670000
  79.6720000  83.7680000 160.2800000  46.5700000  52.8740000 134.8170000
  46.7400000  52.0400000 135.2530000  45.6250000  52.8760000 134.6630000
  72.8460000  81.8440000 126.4370000  73.0540000  82.6070000 125.8980000
  73.5870000  81.7660000 127.0380000  88.9620000  34.4180000 137.0090000
  89.0000000  34.1650000 136.0870000  89.0000000  35.3750000 136.9980000
  49.1280000  43.0430000 145.5890000  49.7280000  42.9750000 144.8470000
  48.7330000  43.9100000 145.4990000  34.5000000  44.6400000 137.1010000
  33.7820000  44.0240000 137.2410000  35.2890000  44.0970000 137.1170000
  70.1260000  80.9680000 148.1280000  69.4450000  80.8240000 147.4720000
  70.0080000  80.2550000 148.7570000  54.9560000  64.8040000 143.7290000
  54.8420000  65.7540000 143.7530000  55.9050000  64.6760000 143.7180000
  61.3130000  68.5730000 150.9710000  61.4530000  67.6680000 151.2470000
  62.0740000  69.0470000 151.3070000  68.3000000  62.5450000 134.3210000
  68.6270000  61.6730000 134.0980000  67.3660000  62.4160000 134.4880000
  70.3160000  33.3640000 136.2890000  69.4340000  33.3990000 136.6590000
  70.1820000  33.1280000 135.3710000  36.3910000  39.3600000 155.1720000
  35.7180000  38.6900000 155.0470000  35.9020000  40.1810000 155.2400000
  67.8810000  70.8600000 148.0380000  67.2870000  71.4760000 148.4660000
  68.1000000  70.2250000 148.7200000  37.2970000  74.6990000 125.7590000
  36.8950000  75.5670000 125.7670000  36.7270000  74.1760000 125.1950000
  31.5860000  45.9370000 163.9600000  31.0000000  45.1820000 164.0000000
  31.0000000  46.6950000 163.9530000  87.5760000  44.1030000 139.0950000
  87.0410000  43.3480000 138.8480000  88.3350000  43.7240000 139.5390000
  43.0090000  32.0150000 126.5920000  42.3680000  32.3570000 127.2150000
  43.4880000  32.7880000 126.2920000  84.7710000  31.0000000 147.7380000
  84.5100000  31.9180000 147.8120000  85.7090000  31.0000000 147.9330000
  79.1470000  56.5170000 147.1280000  79.2050000  55.6140000 147.4420000
  78.4120000  56.5110000 146.5150000  80.7890000  50.2390000 163.1250000
  80.1760000  50.6710000 162.5300000  80.4870000  50.4830000 164.0000000
  38.0710000  44.8170000 146.5610000  37.8390000  45.5430000 145.9820000
  38.1080000  45.2080000 147.4340000  66.5300000  70.9050000 161.7520000
  66.9530000  70.1640000 161.3190000  65.6180000  70.6310000 161.8600000
  86.1980000  45.3730000 163.4730000  86.0620000  46.1600000 164.0000000
  86.9640000  44.9510000 163.8640000  50.5150000  35.1450000 147.7350000
  50.9150000  35.9990000 147.8980000  51.0280000  34.5350000 148.2670000
  54.4130000  40.3090000 162.0110000  54.2680000  39.4310000 161.6570000
  55.3200000  40.5130000 161.7840000  44.8480000  52.8140000 163.5180000
  45.3470000  52.7350000 162.7050000  45.2840000  53.5160000 164.0000000
  70.1610000  62.9550000 154.2260000  70.1400000  62.0010000 154.2920000
  69.2690000  63.2300000 154.4390000  83.2750000  43.3200000 132.3520000
  83.5850000  44.0720000 131.8490000  82.3420000  43.2610000 132.1450000
  34.0470000  40.5770000 163.9890000  33.5910000  41.4180000 163.9850000
  33.3460000  39.9240000 164.0000000  66.2140000  61.3320000 143.9880000
  66.8410000  61.5220000 144.6860000  65.5140000  61.9720000 144.1140000
  83.6790000  79.4060000 136.0100000  83.9790000  79.8580000 136.7980000
  82.8020000  79.7560000 135.8510000  44.6290000  43.4450000 139.5660000
  44.4510000  44.0660000 140.2720000  43.8690000  42.8620000 139.5620000
  42.5910000  84.0390000 164.0000000  41.8130000  84.5960000 164.0000000
  42.2470000  83.1450000 164.0000000  49.1570000  35.4250000 136.3330000
  49.3530000  35.3240000 137.2640000  48.8960000  36.3420000 136.2400000
  72.3530000  80.1250000 133.0450000  73.1420000  80.6430000 133.2050000
  72.6800000  79.2800000 132.7340000  64.2060000  68.7610000 163.9250000
  65.1490000  68.9090000 164.0000000  63.8230000  69.6380000 163.9440000
  86.4400000  71.5910000 124.0960000  86.2540000  72.3340000 123.5230000
  86.6910000  70.8850000 123.5000000  81.0360000  55.8270000 145.6430000
  81.4650000  55.0390000 145.9750000  80.5020000  55.5200000 144.9100000
  42.8020000  37.5790000 158.5840000  43.3060000  38.3850000 158.6980000
  43.4300000  36.9510000 158.2260000  69.8240000  36.3180000 138.2980000
  70.6670000  36.0660000 138.6730000  69.4240000  35.4900000 138.0290000
  78.7840000  37.1180000 150.5420000  79.6460000  37.3340000 150.8980000
  78.1990000  37.7800000 150.9110000  55.6300000  80.1170000 123.5190000
  55.2650000  79.2330000 123.5020000  54.8660000  80.6930000 123.5000000
  62.1360000  79.8890000 149.1120000  63.0460000  79.9040000 148.8160000
  62.0020000  80.7470000 149.5170000  48.6590000  63.1490000 159.2210000
  49.5330000  62.7730000 159.3230000  48.8170000  64.0600000 158.9730000
  86.4840000  53.7740000 143.2260000  86.3020000  54.0790000 144.1140000
  86.9590000  54.4990000 142.8170000  84.8500000  75.5890000 152.1210000
  83.9460000  75.4820000 151.8280000  85.3790000  75.3470000 151.3600000
  85.5160000  47.9750000 137.1920000  86.3110000  47.6570000 137.6180000
  84.8720000  47.2800000 137.3360000  64.6960000  60.8790000 161.1360000
  64.0590000  60.1740000 161.2460000  65.0190000  61.0500000 162.0210000
  86.8520000  36.4960000 136.2770000  86.3740000  36.6850000 137.0840000
  86.2950000  35.8730000 135.8080000  77.1470000  57.6800000 163.8710000
  77.2040000  57.8960000 162.9410000  76.2370000  57.4120000 164.0000000
  84.3520000  42.3170000 140.7090000  84.8230000  42.5100000 139.8990000
  84.1220000  41.3900000 140.6380000  33.6840000  51.4790000 150.6950000
  33.9750000  51.4890000 149.7840000  33.8700000  52.3620000 151.0160000
  59.9410000  45.8740000 148.4220000  59.3130000  46.2430000 149.0430000
  59.6430000  46.1840000 147.5670000  43.2870000  67.4590000 132.7760000
  43.7280000  67.9440000 132.0800000  42.4090000  67.8380000 132.8140000
  70.9550000  32.6980000 163.9260000  71.1740000  31.7700000 163.9970000
  70.6550000  32.8060000 163.0230000  78.8440000  51.8000000 148.9160000
  79.6760000  52.2720000 148.9320000  79.0910000  50.8790000 148.8360000
  40.7940000  54.1230000 126.8300000  41.3270000  54.8880000 127.0460000
  40.5460000  53.7560000 127.6790000  75.2420000  45.7800000 138.1080000
  74.7650000  46.4580000 137.6290000  76.1580000  46.0570000 138.0670000
  82.4540000  84.4930000 126.4770000  82.7820000  85.2950000 126.0700000
  82.5730000  83.8180000 125.8080000  80.1350000  73.0380000 128.7560000
  79.5500000  73.6750000 128.3450000  80.1760000  72.3130000 128.1320000
  38.1080000  65.7510000 161.0170000  38.4540000  66.5910000 161.3200000
  38.6840000  65.0970000 161.4140000  67.8450000  69.0530000 125.9400000
  68.2200000  69.0650000 125.0600000  66.9610000  68.7070000 125.8200000
  31.7620000  83.7600000 156.4300000  31.0000000  84.1050000 155.9650000
  31.3950000  83.2870000 157.1770000  88.6900000  34.4240000 152.9250000
  89.0000000  34.6950000 153.7890000  89.0000000  35.1100000 152.3330000
  85.4190000  33.8610000 141.1480000  85.0270000  33.7600000 140.2810000
  86.3030000  33.5020000 141.0560000  69.9560000  84.3140000 140.0640000
  69.0720000  84.6100000 140.2810000  70.5280000  85.0140000 140.3790000
  88.8400000  43.0560000 133.2990000  89.0000000  43.7210000 133.9680000
  89.0000000  43.5060000 132.4690000  53.5850000  64.3160000 148.6160000
  53.3850000  64.0400000 147.7220000  53.9440000  63.5330000 149.0340000
  49.0860000  68.7600000 128.7540000  48.3240000  68.3270000 128.3720000
  49.7430000  68.7490000 128.0580000  70.7370000  68.4750000 123.5290000
  69.8840000  68.0420000 123.5000000  70.5300000  69.4090000 123.5860000
  47.3160000  32.8470000 129.6190000  46.4960000  32.6040000 129.1890000
  47.6210000  32.0370000 130.0290000  88.7310000  37.1860000 134.0940000
  88.9560000  36.7820000 134.9320000  89.0000000  36.5410000 133.4380000
  88.8940000  38.9730000 142.2760000  89.0000000  39.1210000 143.2160000
  88.9890000  38.0260000 142.1710000  37.6110000  45.1320000 123.5000000
  38.0440000  45.9780000 123.6130000  36.7440000  45.2510000 123.8880000
  37.4220000  60.9330000 136.1440000  36.5370000  60.9410000 135.7790000
  37.9860000  60.7120000 135.4020000  79.0570000  42.8500000 163.9660000
  79.3370000  43.7640000 164.0000000  79.8610000  42.3580000 163.7960000
  43.7790000  74.8490000 136.4380000  43.6200000  74.0220000 135.9820000
  43.0450000  75.4080000 136.1830000  80.0750000  45.0140000 154.4170000
  80.3910000  45.9150000 154.4800000  80.8180000  44.5230000 154.0660000
  88.0670000  76.8910000 141.0950000  87.6350000  76.2470000 140.5340000
  89.0000000  76.7900000 140.9020000  89.0000000  54.0570000 133.8790000
  88.9980000  53.4240000 134.5970000  88.1550000  54.5030000 133.9490000
  48.5740000  55.2770000 139.2930000  49.2410000  55.8720000 138.9490000
  49.0350000  54.4460000 139.4160000  83.4960000  56.7150000 149.7920000
  83.0660000  57.5240000 149.5160000  84.3580000  56.9940000 150.1000000
  37.4540000  85.7030000 160.3930000  38.3530000  85.4320000 160.5780000
  37.5210000  86.2300000 159.5960000  75.1650000  66.3130000 142.2140000
  75.8460000  66.1490000 141.5620000  74.5760000  65.5620000 142.1400000
  88.6770000  79.6990000 125.7350000  87.8000000  79.3800000 125.9490000
  88.6240000  80.6470000 125.8590000  88.7290000  59.3810000 128.7480000
  89.0000000  60.2670000 128.5100000  88.9990000  58.8390000 128.0060000
  47.5680000  33.8620000 132.4100000  48.0600000  33.3100000 133.0180000
  46.8840000  33.2870000 132.0650000  78.2170000  41.4920000 147.0560000
  79.1010000  41.1270000 147.0970000  77.9760000  41.4350000 146.1300000
  60.5560000  47.8510000 123.7420000  60.8550000  46.9440000 123.6690000
  59.6110000  47.7820000 123.8750000  38.3760000  52.2850000 163.9840000
  38.3770000  51.3280000 163.9790000  37.4480000  52.5230000 164.0000000
  75.5450000  70.1420000 142.5300000  76.4280000  70.4640000 142.3460000
  75.6440000  69.1920000 142.5920000  34.0030000  81.6120000 146.7140000
  34.1740000  82.4890000 147.0570000  34.8460000  81.1620000 146.7750000
  41.0420000  76.2210000 142.4880000  40.4300000  76.9130000 142.7380000
  41.4050000  75.9120000 143.3180000  60.2330000  85.1200000 137.1300000
  59.8330000  85.9890000 137.1490000  59.5740000  84.5620000 136.7160000
  31.1540000  58.0220000 134.6470000  31.0290000  58.7320000 134.0180000
  31.7860000  58.3690000 135.2780000  65.3820000  69.5480000 134.3520000
  66.3330000  69.6030000 134.2550000  65.0490000  69.5550000 133.4550000
  51.1090000  58.4650000 130.8950000  50.4500000  57.9210000 130.4640000
  50.9960000  58.2850000 131.8290000  39.0060000  79.6990000 158.8280000
  39.4490000  79.0440000 159.3670000  39.7170000  80.2150000 158.4450000
  46.2020000  62.3980000 123.5130000  46.5160000  63.3020000 123.5300000
  47.0000000  61.8680000 123.5000000  37.3010000  82.7870000 136.5810000
  37.3510000  83.7410000 136.5420000  36.7540000  82.5440000 135.8340000
  52.0040000  64.0990000 163.9630000  52.4440000  64.9480000 163.9780000
  52.7160000  63.4590000 164.0000000  67.1240000  86.6270000 161.4470000
  66.4550000  86.9810000 160.8610000  67.8910000  86.5050000 160.8880000
  54.8070000  86.4210000 147.1960000  54.4760000  87.3020000 147.0220000
  55.6160000  86.5610000 147.6890000  66.5490000  75.6990000 162.6650000
  67.3700000  75.6810000 163.1570000  66.1070000  74.8840000 162.9060000
  48.3740000  36.4510000 144.6380000  47.7180000  37.0890000 144.9190000
  47.8930000  35.6260000 144.5720000  41.2530000  56.1910000 149.4540000
  40.7540000  56.2150000 150.2700000  41.0170000  57.0030000 149.0040000
  73.1680000  43.7860000 161.6310000  72.2180000  43.7730000 161.5130000
  73.5070000  43.2540000 160.9090000  41.1240000  85.4720000 160.3700000
  41.8850000  85.6020000 160.9350000  40.8930000  86.3520000 160.0710000
  41.9880000  44.1290000 134.1400000  42.0070000  43.8470000 135.0540000
  42.3730000  43.3980000 133.6550000  79.9880000  51.6650000 123.6870000
  80.4510000  52.4890000 123.5320000  80.6370000  50.9860000 123.5000000
  55.9940000  48.7430000 129.6290000  56.4090000  49.4850000 129.1900000
  56.7210000  48.2580000 130.0200000  31.3450000  67.1210000 124.4180000
  31.0000000  67.8540000 124.9270000  31.0290000  66.3420000 124.8740000
  79.5520000  31.6450000 138.8950000  80.1770000  31.1430000 138.3720000
  80.0730000  32.3510000 139.2800000  45.8140000  38.5350000 145.9180000
  45.4990000  37.6430000 146.0610000  45.3430000  38.8350000 145.1400000
  67.8790000  72.8340000 163.3930000  67.1420000  72.8890000 164.0000000
  68.6470000  72.7300000 163.9570000  37.1250000  86.0240000 144.6690000
  36.2040000  85.7690000 144.7090000  37.5890000  85.3230000 145.1280000
  88.1020000  51.5730000 150.6980000  88.1850000  52.1480000 149.9370000
  89.0000000  51.3090000 150.8980000  81.8770000  37.3280000 159.1860000
  82.2790000  38.1890000 159.0730000  82.6150000  36.7190000 159.2040000
  75.7230000  63.8900000 157.8730000  76.3140000  63.1390000 157.8070000
  74.8480000  63.5040000 157.9160000  67.5180000  46.3480000 123.5010000
  66.7920000  45.7240000 123.5000000  67.0950000  47.2070000 123.5030000
  54.3600000  50.3330000 130.8060000  54.7800000  51.0900000 131.2140000
  53.6830000  50.7090000 130.2430000  64.9340000  57.2110000 141.4220000
  65.1190000  56.4540000 140.8650000  65.5850000  57.8640000 141.1630000
  81.5830000  89.0000000 163.3980000  82.3520000  88.9980000 163.9680000
  80.8380000  88.9950000 164.0000000  79.6440000  53.0940000 162.2190000
  78.8930000  53.6090000 161.9250000  80.3390000  53.3080000 161.5960000
  58.3850000  33.4780000 133.4000000  57.6150000  33.8910000 133.0100000
  59.0460000  33.5010000 132.7080000  51.7340000  39.3260000 126.7170000
  51.4390000  38.7470000 126.0140000  52.0250000  38.7320000 127.4100000
  67.8050000  34.4720000 155.3580000  68.3750000  33.7060000 155.4250000
  66.9180000  34.1110000 155.3400000  72.9280000  73.0270000 130.6470000
  72.8340000  73.1820000 131.5870000  72.8220000  72.0800000 130.5490000
  76.9790000  43.4980000 139.7420000  76.9440000  44.4520000 139.8150000
  76.0620000  43.2240000 139.7240000  76.4470000  50.1690000 149.7440000
  76.1900000  50.9570000 150.2200000  77.1810000  49.8130000 150.2460000
  59.8840000  75.5060000 152.0360000  60.7150000  75.3610000 151.5840000
  59.4530000  74.6510000 152.0270000  54.5870000  42.8450000 150.4950000
  54.9600000  43.7130000 150.6520000  55.3280000  42.3150000 150.2000000
  87.2440000  67.9230000 140.9070000  86.3190000  67.7190000 141.0420000
  87.6390000  67.0880000 140.6530000  31.0910000  76.8030000 162.5510000
  31.6930000  76.0990000 162.3120000  31.0000000  76.7280000 163.5020000
  64.9580000  76.6480000 159.4320000  64.0910000  76.8660000 159.0910000
  65.5600000  76.8940000 158.7290000  72.3250000  75.6340000 125.5440000
  71.3930000  75.8460000 125.5770000  72.7640000  76.4390000 125.8220000
  55.7820000  50.8820000 126.3450000  56.2280000  50.1610000 126.7900000
  55.3250000  50.4660000 125.6140000  74.7800000  87.9570000 134.7740000
  74.8820000  88.9010000 134.6530000  74.8900000  87.5900000 133.8970000
  86.2720000  55.2020000 131.4200000  85.4400000  54.7500000 131.5560000
  86.9390000  54.5480000 131.6310000  41.9460000  36.8790000 128.2670000
  42.5660000  36.3780000 128.7950000  41.8520000  37.7110000 128.7320000
  77.4480000  72.8610000 125.2990000  76.6170000  72.5390000 125.6470000
  77.2020000  73.5810000 124.7180000  48.0160000  80.0280000 146.3060000
  47.5990000  80.2300000 147.1440000  48.8060000  79.5420000 146.5420000
  81.3980000  69.7940000 161.1340000  81.8830000  69.7420000 160.3110000
  81.8650000  70.4530000 161.6480000  33.7470000  59.7740000 150.8890000
  33.2990000  59.6550000 150.0520000  33.7750000  58.8970000 151.2740000
  65.7100000  67.3610000 157.8900000  64.7670000  67.2200000 157.8080000
  66.0810000  66.4800000 157.9400000  47.4710000  55.2530000 161.3290000
  47.3740000  54.3970000 161.7450000  48.3260000  55.5680000 161.6250000
  62.0010000  44.8210000 151.5700000  62.0870000  45.2130000 152.4380000
  62.2180000  45.5300000 150.9640000  69.5620000  71.5640000 155.7620000
  70.2790000  71.4600000 156.3880000  69.9960000  71.6340000 154.9110000
  32.7290000  34.3350000 149.8260000  33.5800000  34.0520000 150.1610000
  32.3630000  33.5540000 149.4110000  50.2480000  74.2220000 146.6460000
  49.3000000  74.3570000 146.6420000  50.3550000  73.2710000 146.6660000
  56.3270000  63.4810000 159.8010000  56.0870000  63.7300000 160.6940000
  55.5220000  63.5930000 159.2960000  75.0620000  60.2640000 124.3900000
  75.3330000  60.4870000 123.5000000  75.8830000  60.1440000 124.8680000
  80.3770000  51.0320000 134.3690000  80.9100000  50.6620000 135.0720000
  79.5930000  51.3610000 134.8090000  39.5990000  81.5100000 155.7180000
  40.0880000  82.0350000 156.3510000  38.7240000  81.4310000 156.0960000
  57.1390000  74.1560000 161.5600000  57.2770000  75.0220000 161.9430000
  57.5820000  74.1960000 160.7120000  81.1210000  67.9440000 128.7010000
  80.9730000  68.5240000 129.4480000  80.2450000  67.6470000 128.4500000
  50.7950000  88.4350000 155.0970000  51.4320000  89.0000000 154.6600000
  50.0360000  89.0000000 155.2480000  72.6910000  72.2700000 162.1100000
  72.2840000  71.4980000 161.7180000  72.0190000  72.9500000 162.0550000
  40.4580000  73.6330000 141.3850000  40.5120000  72.6920000 141.2170000
  41.3370000  73.8760000 141.6750000  31.2190000  53.3710000 148.4440000
  31.0000000  52.6060000 147.9110000  31.4070000  53.0130000 149.3120000
  71.7500000  31.0000000 134.2530000  72.1370000  31.0580000 133.3790000
  70.8070000  31.0670000 134.1020000  61.5980000  34.3570000 158.0230000
  61.0660000  35.1370000 157.8690000  62.2540000  34.3720000 157.3260000
  80.9870000  79.5570000 156.4570000  80.7170000  80.0180000 155.6630000
  80.3610000  78.8370000 156.5400000  77.8440000  69.9510000 151.9210000
  77.7850000  69.1120000 151.4640000  77.6320000  69.7430000 152.8320000
  57.7860000  71.3660000 126.5460000  58.4880000  71.3380000 127.1960000
  57.9060000  70.5690000 126.0290000  76.7730000  71.6120000 133.6400000
  76.6840000  72.2340000 132.9190000  76.9980000  72.1530000 134.3980000
  85.3870000  57.0770000 152.4490000  85.3150000  56.1400000 152.2670000
  84.7620000  57.2330000 153.1570000  32.1300000  60.1760000 139.9170000
  31.2050000  60.2300000 139.6770000  32.5900000  60.0960000 139.0810000
  53.9990000  49.4930000 163.9470000  53.4220000  48.7310000 163.8950000
  53.4040000  50.2410000 164.0000000  36.6860000  44.1130000 158.2440000
  35.8780000  44.5580000 158.4970000  36.4390000  43.1920000 158.1620000
  61.1740000  32.0020000 125.9880000  61.2860000  31.0750000 126.1950000
  60.8030000  32.3820000 126.7840000  61.4080000  58.0370000 146.6850000
  60.6520000  57.4680000 146.5420000  61.7520000  57.7700000 147.5380000
  46.2210000  51.7820000 155.7310000  46.1380000  52.0400000 154.8130000
  46.9050000  51.1120000 155.7310000  53.7600000  79.0280000 142.7780000
  54.2460000  79.7820000 143.1100000  52.8930000  79.3740000 142.5690000
  76.8780000  31.0000000 138.8260000  75.9500000  31.0000000 139.0620000
  76.9280000  31.5570000 138.0480000  38.3510000  84.4450000 140.0430000
  37.6440000  84.9040000 139.5900000  38.1960000  84.6200000 140.9710000
  69.0310000  38.7790000 138.4520000  69.2900000  39.4110000 139.1230000
  68.3470000  38.2530000 138.8690000  68.0180000  76.9910000 154.1890000
  68.7150000  77.2150000 154.8050000  67.7970000  77.8210000 153.7640000
  33.3650000  69.6220000 123.5000000  33.4720000  70.0600000 124.3440000
  32.4610000  69.3040000 123.5080000  85.7810000  79.0320000 146.7250000
  84.8560000  78.7900000 146.7040000  85.7920000  79.9600000 146.4860000
  70.3200000  57.6640000 160.9450000  70.8220000  57.7120000 160.1320000
  70.4220000  58.5300000 161.3420000  79.8160000  71.5090000 147.3030000
  79.3850000  72.3450000 147.4850000  79.0960000  70.8920000 147.1750000
  83.1020000  31.6510000 150.2400000  82.7770000  31.2300000 151.0350000
  82.9660000  31.0000000 149.5510000  84.8480000  50.3350000 123.7260000
  84.1210000  49.7550000 123.5000000  85.0680000  50.1050000 124.6290000
  39.9190000  32.6340000 159.6420000  39.4430000  31.8040000 159.6520000
  39.2350000  33.3030000 159.6780000  82.0320000  69.5100000 125.4820000
  81.2340000  69.6720000 125.9850000  81.7970000  68.8060000 124.8780000
  86.2960000  37.6380000 143.4370000  86.1230000  37.4130000 144.3510000
  86.5780000  38.5530000 143.4640000  65.6420000  57.2310000 154.2460000
  66.4170000  57.7910000 154.2180000  64.9120000  57.8380000 154.3730000
  38.7880000  88.8530000 129.7260000  38.4000000  88.0180000 129.9860000
  39.5620000  88.9410000 130.2830000  45.5210000  56.8710000 155.0660000
  44.5870000  56.6650000 155.0530000  45.7430000  56.9200000 155.9960000
  35.5810000  65.6890000 151.3440000  35.3900000  64.7740000 151.5500000
  35.4020000  66.1600000 152.1580000  33.2720000  37.1760000 134.1080000
  32.7750000  36.8560000 134.8600000  32.7120000  36.9920000 133.3540000
  56.2590000  64.6110000 149.1680000  57.1350000  64.2350000 149.0730000
  56.3630000  65.2960000 149.8290000  33.6080000  42.7240000 153.2260000
  34.3680000  42.6160000 152.6540000  33.4860000  43.6710000 153.2870000
  64.7620000  60.3050000 149.3380000  65.6140000  60.0550000 148.9810000
  64.2640000  60.6100000 148.5790000  55.7440000  79.4280000 149.9160000
  55.9090000  80.3070000 149.5780000  56.6040000  79.0080000 149.9230000
  46.3190000  46.7700000 149.8150000  46.6490000  47.3970000 149.1710000
  46.8640000  45.9920000 149.6930000  78.3460000  61.1510000 126.4210000
  78.3900000  60.3470000 125.9040000  77.4530000  61.4730000 126.2890000
  55.4100000  74.5830000 155.1650000  54.7170000  75.2430000 155.1430000
  56.2230000  75.0880000 155.1850000  83.2300000  80.8540000 125.7230000
  83.7560000  81.6320000 125.5390000  83.8730000  80.1550000 125.8500000
  43.9210000  35.3830000 161.7570000  44.6190000  36.0370000 161.7410000
  44.3560000  34.5730000 162.0220000  76.5140000  66.7240000 157.8240000
  75.7200000  66.3520000 157.4410000  76.5730000  67.6030000 157.4500000
  58.3160000  77.1340000 162.7860000  59.2000000  76.8750000 163.0480000
  58.4480000  77.7040000 162.0280000  33.7670000  34.3390000 134.6510000
  34.0760000  33.4450000 134.5100000  34.1580000  34.8440000 133.9380000
  52.9520000  85.0910000 145.0350000  53.7580000  84.5870000 145.1430000
  53.1670000  85.9630000 145.3650000  65.5200000  73.2580000 148.7450000
  66.0160000  74.0160000 149.0550000  64.9820000  73.5980000 148.0300000
  54.1440000  76.5810000 157.3570000  53.6870000  77.1660000 156.7530000
  53.7680000  76.7800000 158.2150000  62.8560000  71.9930000 125.8210000
  63.6240000  72.1080000 126.3810000  62.9990000  71.1510000 125.3870000
  31.9050000  78.1770000 140.0360000  32.4450000  78.9380000 139.8260000
  31.0220000  78.5320000 140.1450000  59.4270000  53.5520000 160.0480000
  60.1250000  53.0400000 159.6400000  59.8640000  54.3400000 160.3730000
  46.5430000  83.1980000 125.3370000  45.8900000  83.7690000 125.7420000
  46.4920000  83.4000000 124.4030000  41.2380000  70.9140000 135.4250000
  41.6880000  71.7580000 135.3840000  40.3080000  71.1390000 135.4470000
  86.2440000  36.6870000 140.1520000  85.4210000  36.2160000 140.0280000
  86.5910000  36.3510000 140.9790000  63.8730000  87.4840000 141.8090000
  64.3040000  86.8240000 141.2660000  62.9550000  87.4540000 141.5400000
  46.7820000  44.2290000 133.3510000  47.4560000  43.5610000 133.2240000
  46.2050000  43.8630000 134.0220000  68.6340000  56.8280000 159.2990000
  68.0300000  57.1560000 158.6330000  68.4040000  55.9040000 159.3980000
  59.5980000  47.7210000 160.7960000  58.7500000  47.7350000 161.2380000
  60.2370000  47.8520000 161.4970000  86.6900000  49.7200000 152.5890000
  86.2960000  48.9400000 152.2000000  86.5390000  49.6210000 153.5300000
  38.8390000  37.8440000 129.6620000  39.2120000  38.6290000 130.0630000
  39.1000000  37.8980000 128.7420000  40.8540000  47.6180000 151.6510000
  41.7290000  47.4210000 151.3170000  40.7530000  47.0470000 152.4130000
  70.9340000  57.1010000 157.1600000  70.8400000  58.0020000 157.4690000
  70.6990000  56.5620000 157.9150000  70.9600000  70.7030000 141.5070000
  70.2480000  70.8140000 140.8770000  70.6750000  71.1930000 142.2790000
  31.1170000  41.9930000 130.6780000  31.0000000  42.8340000 130.2370000
  31.9850000  41.6960000 130.4030000  75.8520000  88.9890000 141.6010000
  76.0180000  88.6030000 142.4600000  75.4510000  88.2820000 141.0930000
  85.7970000  85.1330000 163.9850000  85.9190000  84.3500000 163.4480000
  86.5350000  85.6980000 163.7570000  80.6960000  33.5380000 132.7320000
  79.9070000  33.5190000 132.1900000  81.3740000  33.8920000 132.1560000
  73.2660000  66.4700000 163.0610000  74.1090000  66.1220000 162.7700000
  72.9310000  65.8080000 163.6670000  31.0480000  31.9470000 147.8650000
  31.0000000  32.3200000 146.9850000  31.0430000  31.0000000 147.7260000
  42.0530000  67.5020000 135.9830000  42.4910000  67.1280000 135.2190000
  42.1400000  68.4490000 135.8690000  57.0150000  79.3640000 160.6880000
  56.1040000  79.2300000 160.4270000  57.1170000  80.3150000 160.7270000
  69.1900000  45.6940000 129.2990000  68.5240000  46.1680000 129.7960000
  69.2870000  46.1950000 128.4890000  33.2890000  31.4970000 150.4900000
  34.0320000  31.0000000 150.8320000  33.0200000  31.0170000 149.7060000
  40.7170000  55.6270000 133.3080000  41.0260000  56.0990000 132.5360000
  40.8730000  54.7040000 133.1040000  42.6430000  74.5590000 130.2840000
  42.0820000  74.1150000 129.6490000  42.8100000  73.9010000 130.9590000
  83.3030000  41.4620000 137.9120000  83.1150000  42.3960000 137.8250000
  82.5810000  41.1200000 138.4390000  31.2650000  52.9060000 123.6190000
  31.0190000  53.1120000 124.5210000  31.0000000  51.9940000 123.5000000
  49.1300000  74.6550000 159.6300000  48.2200000  74.4270000 159.8210000
  49.0700000  75.4040000 159.0370000  68.5920000  44.6320000 150.8740000
  69.1700000  43.9440000 150.5460000  67.7800000  44.5220000 150.3780000
  43.0550000  46.8890000 156.3780000  42.8360000  47.8200000 156.3310000
  43.1590000  46.7150000 157.3140000  32.4610000  86.9160000 127.9860000
  32.2200000  86.9020000 127.0600000  33.3520000  86.5660000 128.0070000
  31.4830000  83.3460000 131.5110000  31.0000000  82.7000000 132.0250000
  32.3620000  83.3480000 131.8910000  37.0250000  31.1460000 127.0890000
  36.5850000  31.2110000 126.2420000  36.3150000  31.0340000 127.7210000
  54.6010000  53.6760000 151.9380000  54.8900000  54.1950000 152.6880000
  54.7220000  54.2540000 151.1840000  55.6290000  86.9780000 161.3250000
  56.3440000  86.5250000 160.8780000  56.0070000  87.8160000 161.5940000
  71.1260000  87.9280000 153.2440000  70.2390000  87.6110000 153.4170000
  71.6930000  87.1940000 153.4820000  55.7490000  44.1250000 145.0370000
  55.9160000  45.0410000 144.8170000  54.7970000  44.0370000 144.9930000
  42.5100000  31.0110000 148.7470000  42.2690000  31.9330000 148.8340000
  43.4670000  31.0110000 148.7590000  54.6380000  55.7790000 137.6610000
  54.7860000  56.6820000 137.9390000  55.4850000  55.3490000 137.7820000
  41.7350000  84.8890000 138.2100000  41.2100000  84.6350000 138.9690000
  42.2310000  85.6520000 138.5060000  61.3030000  33.3810000 152.5790000
  61.8430000  33.9420000 152.0230000  60.4050000  33.6650000 152.4060000
  49.3400000  79.8180000 157.4560000  49.1360000  78.8880000 157.5560000
  50.2260000  79.8310000 157.0930000  31.1110000  62.7410000 163.8970000
  31.0000000  63.6870000 163.9940000  32.0550000  62.6010000 163.9790000
  58.8380000  58.4950000 135.0610000  59.4280000  59.0630000 135.5570000
  58.0130000  58.9800000 135.0230000  48.1440000  62.8030000 125.5170000
  48.7070000  62.0700000 125.7640000  48.7050000  63.5740000 125.5960000
  72.5080000  64.7810000 143.8900000  71.7370000  64.2130000 143.9000000
  72.2790000  65.4850000 143.2840000  54.3050000  64.2230000 131.6790000
  54.0130000  63.3360000 131.4710000  55.2420000  64.2190000 131.4850000
  72.8380000  52.8150000 139.6950000  72.2110000  53.1310000 140.3460000
  73.3560000  53.5860000 139.4660000  47.2200000  79.8220000 154.9430000
  48.0520000  80.2850000 155.0430000  47.4600000  78.8950000 154.9510000
  61.7200000  56.1440000 164.0000000  61.4450000  55.2280000 164.0000000
  60.9000000  56.6400000 163.9990000  82.5140000  54.6710000 124.0370000
  83.1360000  55.1810000 123.5170000  81.7210000  54.6410000 123.5000000
  45.2380000  88.6010000 146.0260000  45.6870000  89.0000000 146.7710000
  45.8990000  88.0390000 145.6200000  36.9000000  85.6490000 123.5340000
  37.7380000  85.1880000 123.5000000  36.2430000  84.9530000 123.5700000
  36.4940000  33.0670000 138.3520000  36.1240000  33.2430000 137.4870000
  36.0670000  33.7000000 138.9290000  45.5530000  50.3570000 128.5160000
  44.8620000  50.7130000 129.0740000  46.3550000  50.7760000 128.8290000
  86.8120000  78.5030000 143.6360000  86.5730000  78.3220000 142.7270000
  87.0010000  77.6430000 144.0100000  84.7260000  60.4070000 137.5430000
  84.1310000  61.0970000 137.2500000  85.5480000  60.8620000 137.7310000
  69.3670000  64.1400000 123.5530000  69.4790000  65.0900000 123.5320000
  68.4200000  64.0080000 123.5000000  52.8550000  79.7150000 145.6990000
  52.2380000  79.8840000 144.9880000  52.9850000  80.5690000 146.1120000
  33.7090000  67.6860000 163.9030000  34.2170000  68.4930000 163.8230000
  34.3670000  66.9970000 164.0000000  65.7820000  49.5150000 153.5510000
  66.0230000  48.6290000 153.8200000  66.1490000  50.0800000 154.2320000
  43.0230000  43.8670000 156.0840000  43.5330000  43.0810000 156.2760000
  43.6780000  44.5260000 155.8490000  80.1170000  60.5890000 131.7680000
  80.1500000  61.2890000 132.4200000  79.1830000  60.4660000 131.5950000
  57.1350000  64.6920000 129.1820000  57.8160000  64.1660000 129.6010000
  56.4250000  64.0730000 129.0090000  36.5310000  64.7060000 163.1220000
  36.4890000  64.3280000 164.0000000  35.9300000  64.1730000 162.6020000
  55.3030000  39.8200000 135.1890000  55.8720000  39.6520000 135.9410000
  54.9720000  40.7070000 135.3320000  46.9690000  41.6300000 127.0710000
  47.3230000  40.9950000 127.6950000  46.5900000  41.0950000 126.3730000
  35.7520000  83.8670000 126.7530000  34.9900000  84.4230000 126.9130000
  35.6580000  83.5870000 125.8420000  62.0030000  54.8420000 128.2980000
  61.2760000  54.7310000 127.6850000  62.6150000  54.1400000 128.0750000
  59.2120000  47.2710000 154.0940000  59.9710000  47.8290000 153.9260000
  58.4740000  47.8790000 154.1450000  53.6940000  88.9700000 160.7730000
  52.9690000  89.0000000 160.1490000  53.3680000  88.4330000 161.4950000
  72.8460000  74.0680000 149.0310000  72.5750000  73.3030000 148.5220000
  73.7730000  73.9170000 149.2170000  69.7120000  55.9070000 146.3430000
  68.9130000  56.2910000 145.9840000  69.4100000  55.1510000 146.8470000
  71.7040000  38.6270000 142.4120000  72.5850000  38.2600000 142.4800000
  71.1230000  37.8680000 142.4680000  60.1290000  62.8740000 159.0500000
  60.4130000  63.4700000 159.7430000  60.8580000  62.2620000 158.9460000
  77.7310000  43.6530000 156.0680000  77.1610000  43.7910000 156.8240000
  77.1300000  43.4670000 155.3460000  62.0550000  86.7390000 135.3040000
  62.7360000  86.1390000 135.6080000  61.3590000  86.1680000 134.9780000
  42.4580000  85.0320000 146.9700000  42.3450000  85.9440000 146.7030000
  42.4330000  85.0580000 147.9270000  36.7120000  64.5750000 149.1140000
  36.1900000  63.7730000 149.1200000  36.1680000  65.2120000 148.6490000
  64.6620000  70.4640000 141.3060000  65.2940000  70.1040000 140.6840000
  63.9210000  69.8590000 141.2740000  74.5620000  73.6500000 134.7240000
  74.4630000  74.6010000 134.6980000  74.4980000  73.3770000 133.8080000
  46.7190000  54.1840000 137.6470000  46.0710000  53.6840000 137.1500000
  47.5160000  54.1350000 137.1190000  74.3020000  55.6040000 156.2420000
  73.4160000  55.6540000 156.6000000  74.2640000  56.1160000 155.4340000
  53.4970000  58.6310000 160.3880000  53.1940000  57.7290000 160.4850000
  54.3410000  58.5540000 159.9410000  56.0540000  81.4950000 163.7520000
  56.1610000  82.4190000 163.9760000  55.9400000  81.4900000 162.8010000
  73.2050000  39.6590000 156.5490000  73.7190000  39.6690000 155.7420000
  73.1170000  40.5820000 156.7890000  35.9890000  71.3670000 143.8710000
  36.1820000  70.5870000 144.3900000  36.5700000  71.3010000 143.1130000
  45.0700000  62.2070000 126.6320000  45.5710000  61.6920000 127.2640000
  45.7090000  62.4550000 125.9630000  76.0670000  82.3570000 161.4120000
  75.9070000  83.2580000 161.6930000  75.2200000  82.0550000 161.0820000
  49.4600000  75.6240000 127.2990000  48.7120000  75.2030000 127.7220000
  50.2130000  75.0910000 127.5580000  82.9140000  43.7840000 164.0000000
  83.4910000  44.5470000 164.0000000  82.0300000  44.1510000 164.0000000
  76.6820000  82.2190000 152.1390000  76.1810000  82.9540000 151.7860000
  77.4500000  82.6250000 152.5430000  42.2530000  77.3100000 123.5050000
  42.5400000  78.2230000 123.5150000  41.2970000  77.3590000 123.5170000
  79.9250000  72.2110000 137.3210000  80.5500000  71.7570000 136.7570000
  80.4690000  72.6490000 137.9770000  36.8690000  81.7040000 152.2630000
  37.5800000  81.1730000 152.6220000  36.4470000  81.1360000 151.6180000
  62.4790000  62.8380000 127.6090000  63.3540000  63.1100000 127.8850000
  62.3180000  63.3310000 126.8030000  44.7260000  51.7360000 152.4790000
  43.9700000  51.2670000 152.1280000  45.4840000  51.2860000 152.1050000
  70.5160000  42.1680000 146.5880000  71.0040000  42.6540000 147.2520000
  70.4530000  41.2790000 146.9380000  36.0940000  77.2450000 127.7330000
  36.2990000  78.0120000 127.1990000  35.7490000  77.6060000 128.5500000
  37.0840000  49.6170000 141.8650000  36.1500000  49.8270000 141.8740000
  37.1160000  48.6610000 141.9120000  68.3740000  42.1430000 152.5800000
  67.9090000  42.1870000 153.4150000  69.2710000  42.4030000 152.7900000
  62.3900000  37.8930000 129.3340000  63.2630000  37.7040000 129.6780000
  62.0070000  38.4980000 129.9700000  35.8700000  57.9490000 149.1450000
  35.0190000  57.6720000 149.4850000  35.8310000  57.7500000 148.2090000
  74.7610000  59.6540000 135.3750000  74.3450000  60.4020000 135.8020000
  75.4900000  60.0330000 134.8840000  82.7280000  83.7300000 158.8100000
  83.1390000  83.3840000 158.0180000  83.4410000  83.7830000 159.4460000
  35.2030000  33.6440000 156.4790000  34.5930000  33.8990000 157.1710000
  34.7940000  33.9560000 155.6710000  45.6160000  71.4120000 163.4130000
  46.3040000  71.0980000 164.0000000  44.9710000  71.8160000 163.9940000
  47.5660000  47.2200000 143.9650000  48.3160000  46.7340000 144.3060000
  46.9300000  47.2130000 144.6810000  76.2650000  49.1900000 133.3160000
  75.6140000  49.0830000 134.0090000  75.8760000  49.8270000 132.7170000
  65.4240000  50.8340000 146.4340000  65.6360000  51.7640000 146.5040000
  64.5950000  50.8120000 145.9550000  87.1380000  46.4830000 157.2280000
  86.4650000  46.2820000 156.5770000  87.3490000  47.4050000 157.0780000
  81.8150000  73.4230000 155.8820000  82.6620000  73.0950000 156.1850000
  81.6110000  72.8870000 155.1150000  31.8660000  32.4790000 141.0520000
  31.3350000  31.8200000 140.6050000  31.2890000  33.2400000 141.1290000
  42.5500000  48.5780000 129.1490000  43.5000000  48.4750000 129.2060000
  42.2270000  47.7040000 128.9290000  77.0770000  36.4850000 163.4250000
  76.3100000  36.6430000 163.9750000  77.8240000  36.6540000 164.0000000
  55.6280000  85.0640000 164.0000000  55.0880000  85.8540000 163.9990000
  55.8240000  84.9050000 163.0760000  46.7570000  36.7020000 132.9080000
  47.3770000  36.6590000 133.6360000  46.8940000  37.5700000 132.5270000
  57.5530000  33.1370000 139.5850000  57.3300000  33.7090000 140.3190000
  56.7110000  32.7930000 139.2840000  55.0040000  40.1290000 152.4940000
  55.7440000  40.6380000 152.1630000  54.2530000  40.7180000 152.4120000
  79.7940000  75.3760000 160.8980000  79.2370000  74.6600000 161.2030000
  80.6790000  75.0100000 160.9040000  75.6700000  43.6030000 163.9950000
  76.5360000  44.0090000 164.0000000  75.0590000  44.3400000 163.9890000
  72.8120000  54.9190000 159.8740000  72.4610000  54.1950000 159.3560000
  72.2460000  55.6620000 159.6610000  87.6660000  34.5090000 146.1860000
  88.3260000  33.8160000 146.2190000  87.9210000  35.1160000 146.8810000
  55.8820000  51.3100000 136.3710000  56.2700000  52.0640000 135.9280000
  55.5870000  51.6530000 137.2160000  60.4000000  88.9990000 141.0470000
  61.1410000  88.9890000 140.4420000  60.6320000  88.3610000 141.7220000
  71.7540000  56.4810000 162.8420000  71.7760000  57.3870000 163.1490000
  72.3010000  56.4810000 162.0560000  81.0300000  74.7920000 123.5020000
  80.0790000  74.6900000 123.5040000  81.3680000  73.8950000 123.5000000
  85.3990000  76.3630000 145.4460000  86.1950000  76.3240000 145.9750000
  85.4850000  75.6360000 144.8290000  37.2190000  68.8460000 123.8120000
  37.5720000  69.7070000 123.5890000  36.3140000  68.8690000 123.5000000
  81.1760000  78.8430000 137.8740000  82.0470000  78.9010000 138.2680000
  81.1870000  78.0190000 137.3870000  52.1970000  75.4980000 148.7230000
  52.2100000  74.6940000 148.2050000  52.0670000  75.2010000 149.6240000
  85.3820000  66.6040000 147.1410000  86.2630000  66.8450000 146.8550000
  84.9090000  67.4360000 147.1850000  39.1320000  62.5710000 137.9180000
  38.6740000  62.0120000 138.5440000  39.5750000  61.9600000 137.3290000
  63.3300000  39.6990000 163.0190000  63.7720000  38.8670000 163.1890000
  64.0400000  40.3370000 162.9440000  82.1110000  84.9560000 123.5160000
  81.3200000  84.4180000 123.5350000  81.7890000  85.8570000 123.5000000
  60.2900000  74.2670000 149.2140000  60.1350000  75.2050000 149.1010000
  59.4540000  73.9220000 149.5290000  73.7130000  56.2770000 138.1330000
  72.9680000  55.6980000 137.9750000  74.3180000  55.7540000 138.6590000
  75.4790000  74.3340000 161.8880000  76.1270000  74.4490000 161.1930000
  75.1240000  75.2120000 162.0320000  42.9770000  65.6310000 145.8660000
  43.3830000  66.3830000 145.4350000  43.5280000  64.8870000 145.6200000
  68.9920000  81.0730000 138.6570000  69.2950000  81.9380000 138.9330000
  68.3240000  80.8360000 139.3000000  37.9950000  62.1190000 162.0810000
  38.2520000  61.2550000 162.4030000  38.4040000  62.7330000 162.6910000
  62.1090000  64.9980000 158.2100000  62.4260000  65.9000000 158.2020000
  62.9040000  64.4640000 158.2130000  65.2200000  88.8640000 127.4230000
  65.4760000  89.0000000 126.5110000  64.3530000  88.4610000 127.3700000
  65.5540000  75.0570000 143.1930000  65.2180000  75.8970000 143.5050000
  66.5060000  75.1520000 143.2250000  46.6310000  67.3100000 155.3440000
  46.8980000  68.2290000 155.3430000  47.4540000  66.8210000 155.3450000
  36.9080000  41.1110000 136.9920000  36.3770000  41.8710000 136.7530000
  37.8050000  41.3690000 136.7810000  85.2760000  84.0440000 127.1560000
  86.0820000  84.0660000 127.6710000  85.4960000  84.5060000 126.3460000
  72.2610000  46.1850000 150.2980000  72.7140000  45.7690000 151.0310000
  72.3360000  45.5550000 149.5810000  48.2680000  51.4740000 137.3990000
  48.1470000  50.6200000 136.9840000  48.2100000  51.2940000 138.3380000
  45.4560000  59.1570000 160.6190000  45.2760000  60.0810000 160.7940000
  46.4120000  59.0970000 160.6100000  83.3890000  40.8310000 132.5660000
  83.9190000  40.1180000 132.2110000  82.4850000  40.5310000 132.4680000
  74.3980000  68.1510000 155.5840000  75.3020000  68.0430000 155.2890000
  74.0980000  67.2600000 155.7690000  77.7850000  71.9550000 128.7680000
  77.2610000  72.6370000 128.3500000  77.1800000  71.5250000 129.3740000
  37.3890000  74.4990000 128.5820000  36.4830000  74.5780000 128.2840000
  37.4250000  73.6450000 129.0150000  49.8590000  58.3190000 137.4670000
  49.0640000  58.3120000 137.9990000  50.5190000  58.7300000 138.0260000
  36.4370000  72.0970000 130.7110000  37.1820000  71.4970000 130.7310000
  35.6800000  71.5460000 130.9100000  88.2520000  37.9950000 152.7350000
  87.8840000  37.4400000 152.0480000  88.9970000  37.4980000 153.0730000
  61.6750000  88.9880000 155.8110000  61.4660000  88.0730000 155.6260000
  61.9030000  89.0000000 156.7410000  47.8710000  79.9080000 152.4950000
  47.9680000  80.8600000 152.5030000  46.9250000  79.7630000 152.4610000
  70.6720000  41.3410000 156.2410000  69.7870000  41.3150000 155.8780000
  70.6270000  41.9940000 156.9390000  66.3100000  82.5410000 150.8120000
  66.5660000  83.3470000 150.3640000  65.3550000  82.5220000 150.7450000
  64.1670000  89.0000000 146.2480000  63.8740000  88.2200000 146.7190000
  64.5980000  88.6580000 145.4640000  46.8130000  58.3350000 131.8180000
  47.6990000  58.2240000 131.4750000  46.8280000  59.1890000 132.2510000
  67.8590000  79.2290000 136.6560000  67.4480000  80.0470000 136.3790000
  67.5530000  79.0990000 137.5540000  49.6160000  49.1800000 139.3090000
  48.9480000  48.7400000 138.7840000  50.1360000  48.4680000 139.6820000
  63.6180000  44.9740000 144.0350000  62.7840000  45.3850000 144.2600000
  63.3960000  44.0590000 143.8610000  55.5540000  57.9470000 157.7450000
  55.7260000  58.8790000 157.8780000  55.8550000  57.7720000 156.8530000
  71.2150000  76.5940000 159.1600000  71.7660000  76.0800000 159.7500000
  70.8030000  75.9440000 158.5900000  64.6830000  33.6600000 157.4830000
  64.5180000  33.6570000 156.5410000  65.6230000  33.4970000 157.5630000
  35.8410000  37.9140000 132.5840000  35.1860000  38.4090000 133.0750000
  36.4880000  38.5680000 132.3190000  56.3740000  89.0000000 126.4850000
  57.1340000  88.9910000 125.9040000  56.3370000  88.1140000 126.8470000
  52.6470000  89.0000000 150.8580000  53.4370000  88.9720000 151.3970000
  52.9690000  88.9740000 149.9570000  39.1470000  83.1100000 153.1860000
  39.5660000  83.3400000 154.0150000  38.6020000  83.8680000 152.9740000
  53.6100000  86.5580000 159.5400000  53.8780000  85.6410000 159.4860000
  52.6820000  86.5510000 159.3030000  31.5690000  31.4420000 134.4960000
  32.3740000  31.0000000 134.2270000  31.8330000  32.3500000 134.6460000
  83.3470000  71.3770000 163.4820000  83.7270000  72.0960000 163.9860000
  83.5530000  70.5920000 163.9900000  75.1770000  40.1930000 142.7020000
  74.8330000  39.3050000 142.8020000  76.1130000  40.1100000 142.8830000
  46.6080000  45.8730000 152.4700000  47.1110000  46.6340000 152.1820000
  47.2550000  45.3000000 152.8830000  51.9590000  71.5810000 139.7960000
  51.9550000  70.6870000 139.4550000  52.6990000  71.6030000 140.4020000
  31.0680000  31.6980000 131.2270000  31.0000000  31.2470000 132.0690000
  31.0000000  31.0000000 130.5750000  53.5380000  44.9770000 142.9900000
  54.1830000  45.0180000 142.2850000  53.1180000  45.8380000 142.9820000
  50.2350000  34.9850000 155.5660000  50.8080000  34.6210000 156.2410000
  49.7690000  35.6970000 156.0050000  50.6730000  40.2700000 129.0720000
  50.5100000  39.4190000 129.4790000  49.9500000  40.3830000 128.4550000
  55.8410000  43.3480000 123.5500000  56.5160000  42.6720000 123.5000000
  55.0150000  42.8640000 123.5160000  55.3030000  84.7550000 126.6790000
  54.5340000  84.4650000 126.1890000  55.0130000  85.5440000 127.1370000
  57.8960000  38.8800000 150.7530000  56.9690000  38.6930000 150.9000000
  58.2090000  38.1440000 150.2260000  75.1260000  38.8000000 130.8420000
  75.7260000  38.7270000 131.5840000  74.2620000  38.9060000 131.2410000
  80.6780000  78.1630000 162.0900000  80.3270000  78.4310000 161.2420000
  81.3710000  78.7970000 162.2750000  57.9430000  73.2130000 138.7630000
  57.5930000  73.7950000 138.0890000  58.8640000  73.0990000 138.5260000
  65.8930000  66.5010000 127.5260000  66.8270000  66.7070000 127.5330000
  65.8550000  65.5500000 127.6280000  77.9970000  44.0870000 128.3450000
  78.0550000  45.0300000 128.1930000  78.9060000  43.7870000 128.3440000
  79.9180000  48.1600000 159.5620000  80.0970000  48.9090000 160.1300000
  80.6070000  47.5300000 159.7710000  44.5690000  75.5970000 127.5080000
  44.4050000  74.9420000 128.1860000  45.5230000  75.6650000 127.4650000
  75.0180000  43.2840000 129.0660000  75.8470000  42.8110000 128.9940000
  74.4240000  42.6630000 129.4880000  69.8820000  74.3490000 133.5430000
  69.9600000  74.9640000 134.2720000  68.9390000  74.2740000 133.3920000
  65.6770000  38.1350000 137.7820000  66.1340000  38.9600000 137.9470000
  65.9810000  37.5500000 138.4760000  48.5220000  55.3460000 126.0400000
  48.1150000  54.5010000 125.8510000  47.7860000  55.9510000 126.1360000
  46.8600000  68.7850000 149.3820000  45.9190000  68.6210000 149.3210000
  47.1430000  68.9000000 148.4750000  75.1170000  53.6190000 150.7630000
  74.3090000  54.0900000 150.9660000  75.6540000  54.2560000 150.2910000
  61.4700000  57.0420000 129.4880000  61.1140000  57.3710000 130.3130000
  62.3770000  57.3500000 129.4780000  80.4430000  37.4220000 129.0930000
  79.6770000  37.8920000 128.7630000  80.1170000  36.5460000 129.2970000
  78.0030000  41.7990000 143.3530000  78.5980000  42.5320000 143.5110000
  78.2500000  41.4710000 142.4880000  41.9700000  59.4770000 123.5730000
  41.1230000  59.9230000 123.5570000  42.6140000  60.1820000 123.5000000
  80.4110000  33.7610000 136.8740000  80.4770000  33.1090000 136.1760000
  81.2670000  33.7410000 137.3030000  75.0400000  86.1650000 136.6170000
  74.6320000  85.3320000 136.8530000  75.9650000  85.9530000 136.4930000
  67.4910000  57.1990000 143.2950000  68.4230000  56.9840000 143.3050000
  67.4660000  58.1560000 143.2940000  39.0240000  40.2040000 141.6490000
  38.4420000  39.8420000 140.9810000  39.0850000  39.5170000 142.3130000
  58.8890000  68.8160000 152.8000000  59.0770000  69.6960000 152.4740000
  59.7500000  68.4150000 152.9190000  71.1060000  68.8550000 143.2200000
  71.3700000  67.9400000 143.1240000  70.1710000  68.8570000 143.0140000
  77.3040000  69.6340000 160.2580000  78.2180000  69.4280000 160.4530000
  77.2160000  69.4710000 159.3180000  37.5180000  38.5520000 149.6520000
  37.7240000  37.8040000 150.2110000  37.1090000  39.1870000 150.2410000
  53.0550000  64.1510000 158.9790000  52.4790000  64.9130000 159.0270000
  52.6720000  63.5210000 159.5900000  85.9060000  57.3560000 143.6470000
  85.2900000  57.8600000 143.1150000  85.5980000  56.4520000 143.5800000
  67.9310000  49.3890000 146.6680000  67.9800000  50.2510000 147.0810000
  68.6790000  48.9090000 147.0250000  42.6660000  77.5380000 154.5460000
  43.0500000  76.6810000 154.7320000  41.8630000  77.3410000 154.0630000
  45.4380000  88.5610000 153.9800000  45.1430000  89.0000000 153.1830000
  44.9550000  88.9930000 154.6850000  53.4670000  59.8450000 130.9830000
  53.6220000  60.7400000 130.6840000  54.1440000  59.3260000 130.5490000
  67.2370000  88.2250000 143.4290000  67.6200000  88.9030000 143.9850000
  66.3110000  88.4630000 143.3650000  47.5990000  72.8410000 136.9060000
  47.7420000  71.8960000 136.8650000  47.2610000  72.9940000 137.7890000
  57.8590000  41.0220000 133.4170000  58.3240000  41.7680000 133.7950000
  58.3660000  40.2580000 133.6930000  67.7690000  43.1100000 144.5300000
  66.9890000  42.6350000 144.8170000  68.5020000  42.5830000 144.8510000
  66.2850000  31.2370000 142.0030000  67.1760000  31.5840000 142.0380000
  66.0840000  31.0000000 142.9090000  65.6290000  31.0440000 132.0120000
  66.5600000  31.0860000 132.2320000  65.6110000  31.0000000 131.0550000
  54.5160000  44.2730000 125.9800000  55.3950000  44.5990000 125.7870000
  53.9610000  45.0530000 125.9580000  37.9540000  39.1330000 138.4800000
  38.3690000  38.3090000 138.7330000  37.0680000  38.8850000 138.2170000
  51.9680000  65.6940000 153.0590000  52.1270000  66.0020000 153.9510000
  52.8240000  65.7400000 152.6330000  46.1530000  82.8880000 136.4770000
  46.9450000  82.3560000 136.4040000  46.4600000  83.7900000 136.3850000
  39.0830000  89.0000000 143.0750000  38.6170000  88.9810000 143.9110000
  38.3900000  88.9950000 142.4140000  31.0320000  48.1420000 144.0500000
  31.7250000  48.8000000 144.0050000  31.0000000  47.8910000 144.9740000
  54.9720000  70.6600000 126.7130000  55.3440000  71.2190000 126.0310000
  54.0250000  70.7680000 126.6220000  50.9800000  40.4470000 154.3110000
  51.8750000  40.1560000 154.1400000  51.0290000  41.4030000 154.2820000
  31.1690000  85.9350000 143.4300000  31.1190000  86.5010000 144.2000000
  31.0000000  85.0550000 143.7680000  38.4190000  88.1030000 161.5700000
  38.3310000  89.0000000 161.2490000  39.2970000  87.8350000 161.2980000
  42.7240000  79.1180000 131.6180000  43.4340000  79.3350000 131.0150000
  42.9600000  78.2600000 131.9690000  37.7720000  54.3600000 127.1870000
  36.8300000  54.4930000 127.0830000  38.1020000  55.2090000 127.4830000
  67.8430000  72.3390000 129.0980000  68.5240000  72.1140000 129.7310000
  67.0260000  72.2910000 129.5960000  52.1620000  60.3260000 125.8920000
  51.2080000  60.2550000 125.9130000  52.3320000  61.2680000 125.8740000
  31.1910000  44.5590000 133.2260000  32.1420000  44.5940000 133.3260000
  31.0000000  43.6350000 133.0640000  70.3080000  48.9180000 148.9210000
  70.0370000  49.8360000 148.9400000  71.2640000  48.9510000 148.8820000
  59.5940000  87.4400000 153.0070000  58.8000000  86.9200000 152.8800000
  59.3190000  88.1630000 153.5700000  69.6800000  38.8470000 147.6570000
  69.3990000  37.9410000 147.7820000  69.0610000  39.2040000 147.0180000
  52.1020000  39.1410000 145.6680000  52.1870000  39.7230000 146.4230000
  52.8860000  39.3120000 145.1440000  75.9620000  58.8760000 150.6180000
  76.2470000  59.7050000 151.0020000  75.3100000  59.1270000 149.9630000
  88.4910000  31.7960000 159.5790000  89.0000000  31.4310000 160.3030000
  89.0000000  32.5520000 159.2850000  41.5770000  74.1090000 133.4300000
  41.7250000  74.3300000 134.3490000  41.1470000  73.2530000 133.4550000
  88.4870000  61.1470000 144.0080000  89.0000000  61.9090000 144.2770000
  88.9970000  60.7530000 143.3000000  75.6530000  39.1570000 157.2410000
  76.5340000  38.9200000 156.9540000  75.6860000  39.0900000 158.1960000
  76.5680000  77.6550000 135.7180000  75.9600000  77.2470000 135.1020000
  77.4350000  77.3920000 135.4090000  41.9110000  40.1160000 133.0900000
  42.7340000  39.6510000 132.9400000  42.1130000  41.0310000 132.8940000
  42.3980000  42.8870000 129.5110000  42.2830000  43.8370000 129.4990000
  42.8310000  42.6880000 128.6800000  33.7330000  34.0020000 143.4660000
  33.1130000  33.3080000 143.2390000  34.4840000  33.5400000 143.8380000
  84.5770000  85.9330000 124.2750000  84.4810000  86.4860000 123.5000000
  84.9940000  86.5000000 124.9250000  49.0350000  80.3240000 160.4940000
  49.4120000  80.8000000 159.7540000  49.7220000  80.3330000 161.1610000
  72.7200000  69.4290000 136.7190000  72.7640000  70.1930000 136.1450000
  73.1690000  69.7030000 137.5190000  61.5520000  89.0000000 163.6430000
  62.0390000  88.2580000 164.0000000  60.6400000  88.8200000 163.8690000
  57.8410000  31.4340000 148.5210000  56.9980000  31.0000000 148.6560000
  58.4320000  31.0090000 149.1430000  82.4950000  56.2850000 152.0510000
  82.3600000  57.1340000 152.4710000  81.6110000  55.9460000 151.9060000
  38.6130000  76.9920000 136.0350000  39.4370000  76.5340000 135.8710000
  38.8550000  77.9180000 136.0600000  37.4600000  62.7080000 132.7240000
  36.7830000  62.4210000 132.1130000  37.8800000  61.8980000 133.0150000
  70.7400000  88.1160000 145.2860000  69.9260000  88.1960000 144.7890000
  70.9090000  88.9990000 145.6150000  86.4140000  57.1320000 159.3030000
  86.3120000  57.9260000 159.8280000  85.8960000  56.4720000 159.7640000
  65.9570000  85.0580000 136.4840000  65.3910000  85.8220000 136.5960000
  66.6670000  85.3670000 135.9200000  46.4770000  34.6970000 127.6690000
  47.2670000  34.9410000 128.1510000  46.3370000  35.4190000 127.0560000
  33.4890000  58.4170000 159.9300000  33.6520000  59.3520000 160.0570000
  33.1500000  58.1160000 160.7730000  55.6660000  83.8830000 160.5280000
  56.3600000  83.3560000 160.9240000  54.8600000  83.5620000 160.9330000
  38.1510000  66.7590000 144.9310000  38.2170000  66.8180000 145.8840000
  38.6170000  65.9530000 144.7080000  71.6560000  88.9740000 136.5820000
  71.2140000  88.1890000 136.2600000  72.5890000  88.7680000 136.5170000
  78.5300000  82.8500000 149.7930000  78.4620000  81.8980000 149.7240000
  77.8870000  83.1830000 149.1670000  87.8110000  89.0000000 149.6370000
  87.4190000  88.1450000 149.4600000  88.7550000  88.8450000 149.5940000
  69.2570000  44.1930000 125.7630000  68.3730000  43.9570000 126.0430000
  69.5370000  44.8600000 126.3900000  32.9820000  56.4140000 124.8190000
  33.5250000  56.3020000 125.5990000  32.3520000  55.6940000 124.8600000
  31.7930000  64.9040000 133.5680000  31.1440000  65.3040000 134.1460000
  32.6140000  64.9560000 134.0570000  73.4570000  40.7050000 159.2630000
  73.4880000  39.7490000 159.2550000  74.3750000  40.9750000 159.3050000
  40.3330000  31.6740000 142.3860000  40.6700000  31.0130000 141.7820000
  40.8530000  31.5590000 143.1820000  76.7660000  51.6190000 126.0720000
  76.6090000  50.8740000 125.4920000  77.7010000  51.8020000 125.9790000
  79.4690000  50.7640000 142.7910000  79.4980000  49.8460000 142.5200000
  80.3610000  51.0830000 142.6560000  38.8290000  33.1140000 132.1470000
  39.4610000  33.4460000 131.5090000  39.0990000  32.2090000 132.3040000
  41.8540000  56.8280000 153.9730000  41.4380000  56.3120000 153.2830000
  41.1620000  57.4110000 154.2870000  32.9300000  76.5500000 126.8570000
  33.6350000  77.0340000 127.2860000  32.8270000  76.9780000 126.0060000
  56.8720000  44.9680000 155.7080000  57.4610000  45.7090000 155.5690000
  57.4530000  44.2120000 155.7940000  51.8870000  37.7890000 155.6750000
  50.9510000  37.8940000 155.8420000  51.9720000  36.8970000 155.3380000
  54.9590000  37.3430000 134.9520000  54.4770000  37.4450000 135.7720000
  55.3350000  36.4630000 135.0030000  88.9270000  66.5930000 142.8250000
  88.9990000  65.6660000 143.0530000  88.7390000  67.0300000 143.6560000
  60.8020000  39.9110000 134.1400000  60.6180000  40.6410000 134.7320000
  61.7540000  39.9220000 134.0350000  34.2590000  73.8090000 145.6820000
  34.7060000  73.3980000 146.4220000  34.6480000  73.3980000 144.9090000
  31.7820000  75.4270000 146.0160000  31.0000000  75.7720000 145.5860000
  32.5040000  75.6770000 145.4390000  44.8450000  86.1310000 157.0770000
  44.9170000  86.7360000 156.3390000  43.9230000  85.8740000 157.0890000
  85.9360000  45.4080000 148.7110000  84.9950000  45.3800000 148.8830000
  86.3040000  44.7280000 149.2770000  35.8660000  71.0160000 140.5850000
  36.0260000  71.9600000 140.5590000  36.7390000  70.6250000 140.6110000
  63.7610000  83.8100000 161.4630000  63.3800000  84.3220000 162.1760000
  63.0150000  83.3560000 161.0690000  51.6230000  34.7920000 126.7940000
  51.0930000  34.0070000 126.9300000  51.1550000  35.2840000 126.1190000
  88.7590000  78.3330000 145.7540000  88.9940000  78.8540000 144.9870000
  88.9920000  77.4360000 145.5150000  33.5870000  78.5170000 142.0100000
  32.7800000  78.9400000 142.3040000  34.2040000  78.6520000 142.7300000
  32.7270000  68.9250000 148.5760000  32.2530000  68.8730000 149.4060000
  33.1430000  69.7880000 148.5910000  63.7160000  71.9920000 138.9550000
  64.6600000  71.8460000 139.0080000  63.3380000  71.1130000 138.9190000
  45.1240000  46.0070000 158.9880000  45.9040000  45.4950000 159.2030000
  45.4640000  46.8570000 158.7100000  74.8890000  51.6690000 131.2890000
  75.6130000  51.7370000 130.6660000  75.1950000  52.1420000 132.0630000
  36.3770000  86.2630000 153.5660000  36.5540000  87.1840000 153.7570000
  35.9690000  85.9270000 154.3640000  33.5620000  53.6610000 126.4620000
  33.6700000  52.9870000 125.7910000  34.3980000  54.1280000 126.4710000
  53.5510000  67.7010000 133.6460000  53.0090000  68.4570000 133.4210000
  54.4440000  67.9770000 133.4410000  36.7980000  83.0220000 146.0020000
  36.0460000  83.3820000 145.5310000  36.9350000  82.1590000 145.6100000
  48.1230000  86.9210000 163.9260000  48.7010000  86.1620000 164.0000000
  47.2410000  86.5490000 163.8870000  83.8810000  43.9930000 127.6700000
  83.9660000  44.8280000 127.2100000  83.2550000  43.4930000 127.1450000
  72.2750000  69.9050000 125.7650000  72.7780000  69.0950000 125.8510000
  72.9110000  70.6010000 125.9270000  76.1060000  80.3100000 143.3640000
  76.8760000  80.5570000 143.8770000  76.1060000  80.9190000 142.6240000
  38.2790000  53.5460000 134.2690000  38.8070000  54.3070000 134.5100000
  38.7320000  52.8030000 134.6690000  51.0770000  82.1450000 123.5050000
  51.9800000  81.8260000 123.5020000  51.1600000  83.0990000 123.5000000
  47.3860000  34.1790000 154.3520000  46.9840000  33.7780000 153.5810000
  48.1820000  33.6670000 154.5010000  49.6940000  64.3700000 131.3730000
  50.0980000  64.1010000 130.5480000  48.7600000  64.2000000 131.2490000
  75.4260000  38.9480000 161.7760000  75.5050000  39.2680000 160.8770000
  76.0950000  38.2680000 161.8480000  88.6710000  82.6560000 123.5000000
  87.8290000  82.2030000 123.5450000  89.0000000  82.6410000 124.3990000
  47.7770000  60.9670000 145.6940000  46.8610000  60.8270000 145.9340000
  48.2750000  60.5180000 146.3780000  35.7740000  54.9530000 133.5520000
  36.6490000  55.3350000 133.6130000  35.9240000  54.0070000 133.5610000
  59.9620000  63.6860000 154.1700000  59.4010000  62.9110000 154.1630000
  59.3520000  64.4240000 154.1420000  45.4250000  46.9290000 142.6900000
  45.5630000  46.3150000 141.9690000  44.7140000  47.4950000 142.3900000
  53.5620000  42.5830000 142.1130000  52.6090000  42.6670000 142.1150000
  53.7680000  42.1710000 142.9520000  47.4090000  70.3980000 123.6070000
  47.2610000  71.3420000 123.5520000  46.5390000  70.0120000 123.5000000
  65.9880000  57.2190000 161.4270000  65.8720000  56.3980000 161.9050000
  66.5680000  56.9940000 160.7000000  83.3250000  54.2680000 153.5940000
  83.4820000  53.6300000 154.2900000  83.7510000  55.0680000 153.9020000
  77.6130000  68.3510000 133.5240000  78.5560000  68.4850000 133.4310000
  77.2990000  69.1480000 133.9520000  83.1380000  67.7420000 149.4450000
  83.1230000  68.3290000 148.6890000  84.0630000  67.5200000 149.5590000
  55.9040000  33.6000000 156.1140000  55.8580000  32.9990000 156.8580000
  55.6890000  34.4570000 156.4840000  50.7790000  34.2730000 152.6640000
  51.6860000  34.4460000 152.9160000  50.4200000  33.7650000 153.3920000
  62.4620000  43.0530000 158.0560000  62.2930000  42.1120000 158.0860000
  63.1800000  43.1890000 158.6750000  44.7240000  60.2280000 153.8640000
  44.6850000  59.3140000 154.1450000  43.8940000  60.3750000 153.4100000
  65.9400000  48.9140000 125.0220000  65.0840000  48.5560000 125.2560000
  65.7750000  49.8420000 124.8560000  82.5560000  88.9940000 123.5370000
  82.7750000  88.2520000 124.1000000  81.5990000  88.9930000 123.5000000
  82.9050000  47.3930000 163.9460000  83.7890000  47.1490000 163.6720000
  82.9250000  48.3490000 164.0000000  40.4380000  64.8550000 150.1240000
  39.5040000  64.7520000 149.9470000  40.6000000  64.3030000 150.8900000
  46.6300000  31.9260000 126.7860000  46.5610000  31.0640000 126.3760000
  45.9830000  32.4630000 126.3290000  57.1300000  67.5630000 127.4030000
  57.5660000  67.0500000 126.7220000  57.1180000  66.9860000 128.1670000
  66.6780000  38.9200000 134.7870000  66.4690000  39.4900000 135.5270000
  67.4070000  38.3820000 135.0970000  59.4680000  61.6030000 150.2420000
  58.8730000  62.3510000 150.2840000  58.8910000  60.8400000 150.1990000
  79.7830000  64.9280000 132.8950000  80.4160000  65.2440000 133.5390000
  79.2520000  65.6970000 132.6830000  48.3550000  77.2320000 150.9210000
  47.5560000  77.6610000 151.2270000  49.0640000  77.7080000 151.3540000
  82.2020000  70.4460000 134.5100000  83.1150000  70.4780000 134.2250000
  81.9780000  71.3560000 134.7040000  65.8230000  51.5840000 159.5130000
  66.6620000  51.6460000 159.0560000  65.2260000  52.1220000 158.9930000
  88.9150000  31.0010000 136.9990000  89.0000000  31.9280000 137.2230000
  88.5790000  31.0010000 136.1030000  82.4760000  66.7090000 145.2880000
  81.7490000  66.0940000 145.3860000  82.6610000  67.0060000 146.1790000
  66.0420000  31.9180000 160.1850000  65.7600000  31.0050000 160.1290000
  65.2270000  32.4180000 160.2290000  38.9350000  59.1540000 137.4350000
  39.1000000  59.5600000 138.2870000  39.6220000  59.5040000 136.8660000
  68.2950000  73.4690000 141.8350000  68.7800000  72.9110000 141.2270000
  68.8620000  74.2290000 141.9680000  66.7290000  85.2960000 131.6930000
  67.1690000  85.6730000 132.4550000  66.0250000  84.7620000 132.0620000
  88.1850000  75.5860000 143.2240000  89.0000000  75.6050000 143.7250000
  87.6200000  74.9810000 143.7060000  84.8700000  48.2730000 158.9540000
  85.2130000  47.6040000 158.3620000  85.6050000  48.4830000 159.5310000
  41.5790000  52.8650000 150.1310000  41.7650000  53.3310000 150.9460000
  42.1280000  53.2980000 149.4770000  52.7890000  83.4900000 128.8100000
  53.2310000  84.3070000 129.0430000  51.9910000  83.4900000 129.3390000
  73.6660000  64.5390000 127.0880000  72.9950000  64.5520000 127.7710000
  73.5990000  65.3980000 126.6700000  56.7950000  84.7840000 146.3300000
  56.2010000  84.8820000 145.5860000  57.5470000  85.3340000 146.1100000
  31.2390000  61.3040000 142.1770000  31.0030000  62.2310000 142.1800000
  32.1960000  61.3000000 142.1490000  49.1840000  51.2880000 127.9390000
  49.9400000  50.7400000 128.1480000  49.5560000  52.1510000 127.7580000
  31.0670000  46.3480000 130.2840000  31.0570000  45.5500000 130.8130000
  31.0080000  46.0380000 129.3800000  74.0740000  40.3550000 138.4590000
  73.5990000  41.1100000 138.8050000  74.5580000  40.0120000 139.2100000
  40.4420000  61.6620000 163.9080000  40.6700000  61.4610000 163.0010000
  40.6270000  62.5970000 164.0000000  77.8220000  34.1290000 146.9670000
  78.4590000  34.5780000 146.4110000  78.3500000  33.5460000 147.5130000
  76.3770000  36.8020000 148.3200000  76.3140000  37.2540000 149.1600000
  75.6220000  37.1160000 147.8210000  56.6140000  55.4370000 161.4060000
  57.2940000  54.9310000 160.9630000  57.0650000  56.2200000 161.7230000
  70.5080000  74.4370000 163.8930000  71.2350000  75.0500000 164.0000000
  69.7240000  74.9860000 163.9240000  87.2320000  67.5360000 152.6040000
  87.5630000  68.3030000 152.1360000  86.3170000  67.4640000 152.3280000
  78.1650000  65.5480000 137.9030000  79.1210000  65.5970000 137.9070000
  77.9730000  64.6150000 137.8060000  31.0020000  60.8720000 147.1510000
  31.0360000  61.7890000 146.8800000  31.9170000  60.6320000 147.2990000
  83.9680000  37.0060000 125.8220000  83.6540000  37.8920000 125.6420000
  83.9400000  36.9310000 126.7760000  85.5270000  71.2100000 127.1290000
  85.1690000  71.2640000 126.2430000  85.4310000  72.0960000 127.4810000
  60.8740000  43.5640000 143.1430000  60.8130000  44.3460000 142.5950000
  60.0120000  43.1540000 143.0740000  46.8300000  40.0480000 133.8370000
  46.4560000  40.9280000 133.8730000  47.7710000  40.1900000 133.7380000
  53.8730000  37.0130000 132.6300000  53.2750000  37.6790000 132.9700000
  54.3320000  37.4490000 131.9110000  86.6100000  65.4010000 150.3580000
  85.7820000  65.7750000 150.0570000  86.4600000  65.1980000 151.2820000
  55.5360000  50.3870000 157.5720000  56.3850000  50.6490000 157.2150000
  55.2160000  49.7200000 156.9650000  81.8930000  75.8510000 150.3140000
  82.2510000  76.4140000 149.6280000  81.7660000  76.4360000 151.0610000
  73.4830000  45.9000000 133.2580000  74.3390000  46.3030000 133.3990000
  72.9110000  46.6280000 133.0140000  53.6140000  46.0550000 135.1270000
  52.7030000  45.8610000 135.3460000  53.8700000  46.7370000 135.7490000
  66.9050000  48.9330000 134.8510000  66.9940000  48.5990000 135.7430000
  67.4460000  48.3470000 134.3200000  45.6130000  83.5230000 128.3450000
  45.6370000  82.5710000 128.2530000  46.5110000  83.8040000 128.1640000
  73.9810000  55.3610000 163.5310000  74.0540000  56.1930000 163.9980000
  73.2970000  54.8820000 164.0000000  53.4270000  83.2170000 163.9630000
  53.5410000  83.0250000 163.0330000  53.1410000  84.1300000 163.9860000
  79.7700000  42.1280000 133.1230000  79.2180000  41.6160000 133.7140000
  79.2630000  42.9210000 132.9470000  77.9470000  48.6420000 123.5000000
  77.8570000  49.5950000 123.5200000  78.8920000  48.4890000 123.5330000
  39.2080000  61.8000000 157.3850000  39.6380000  61.8760000 156.5330000
  39.1130000  62.7040000 157.6870000  65.3350000  40.4150000 153.6400000
  65.5110000  40.5980000 152.7170000  66.1540000  40.0480000 153.9720000
  79.6150000  40.5370000 139.8800000  80.0000000  41.2000000 140.4520000
  80.3600000  40.1640000 139.4080000  80.7320000  43.0310000 138.2310000
  80.9450000  43.9470000 138.0570000  79.9540000  43.0670000 138.7890000
  71.1650000  57.8700000 127.3250000  71.9530000  57.6470000 127.8200000
  70.6850000  57.0440000 127.2530000  69.7150000  55.7870000 129.4810000
  70.6440000  55.5850000 129.5830000  69.3060000  55.4420000 130.2760000
  38.7770000  78.9800000 139.3600000  38.6150000  79.9240000 139.3710000
  37.9040000  78.5870000 139.3630000  55.5700000  83.3710000 140.0160000
  55.7720000  84.2670000 139.7470000  55.4740000  82.8890000 139.1940000
  62.4710000  63.0550000 161.1000000  63.1530000  63.1500000 161.7640000
  62.5840000  62.1640000 160.7660000  73.1360000  61.2110000 138.2410000
  72.1890000  61.1060000 138.1420000  73.2610000  62.1530000 138.3630000
  65.2350000  86.2410000 148.1750000  65.2170000  85.3080000 147.9620000
  66.1480000  86.4170000 148.4030000  37.3930000  38.4200000 145.4960000
  37.4070000  39.2950000 145.1080000  36.5560000  38.0480000 145.2170000
  45.2330000  67.8200000 163.9500000  46.0930000  67.3990000 163.9410000
  45.4260000  68.7570000 164.0000000  87.7450000  84.9840000 150.0630000
  88.6070000  85.3740000 149.9220000  87.1350000  85.7190000 149.9940000
  85.9930000  75.0490000 126.6560000  86.5730000  74.3510000 126.3520000
  86.5840000  75.7510000 126.9280000  69.3280000  64.6720000 146.6750000
  68.7980000  63.8770000 146.6180000  69.6760000  64.6650000 147.5680000
  49.7480000  62.4130000 123.5170000  49.6190000  61.4640000 123.5160000
  50.6980000  62.5260000 123.5010000  61.2940000  78.7780000 146.8900000
  61.3310000  79.6910000 146.6060000  62.2090000  78.5000000 146.9250000
  70.8300000  46.0610000 152.7100000  70.0340000  45.5400000 152.8200000
  70.7690000  46.7370000 153.3850000  66.5710000  54.8860000 143.9680000
  65.7870000  55.4240000 143.8570000  66.2690000  53.9890000 143.8200000
  31.5510000  72.7520000 157.0030000  31.0000000  72.6080000 157.7720000
  31.0000000  73.2590000 156.4050000  51.9650000  71.5890000 163.2130000
  51.7040000  71.1110000 164.0000000  51.3580000  71.2880000 162.5370000
  69.4060000  54.8120000 133.2010000  68.5040000  54.5620000 133.0050000
  69.3750000  55.1390000 134.1000000  81.4530000  67.8790000 132.9160000
  82.3840000  67.6730000 132.9970000  81.4170000  68.5710000 132.2550000
  88.0570000  88.8040000 158.5870000  88.9670000  89.0000000 158.3680000
  87.5720000  88.9840000 157.7810000  59.0120000  69.5430000 146.5620000
  59.1640000  69.8070000 145.6550000  58.1490000  69.8990000 146.7750000
  86.4020000  44.7230000 159.9000000  86.2400000  45.6170000 159.5990000
  85.6880000  44.5430000 160.5120000  33.4880000  39.6570000 155.6330000
  33.0740000  40.1950000 156.3080000  33.3460000  40.1410000 154.8190000
  31.0190000  61.6600000 150.7890000  31.0010000  61.3160000 149.8960000
  31.0460000  60.8800000 151.3450000  80.3410000  78.8250000 134.7830000
  79.8240000  78.0230000 134.8630000  80.4430000  78.9510000 133.8390000
  74.2060000  51.9490000 152.5330000  73.7420000  51.4320000 153.1910000
  74.7370000  52.5630000 153.0410000  71.4380000  70.0290000 159.3730000
  71.0210000  69.1990000 159.1420000  71.1820000  70.6290000 158.6720000
  79.9560000  70.5030000 130.6370000  79.6410000  71.4050000 130.5820000
  79.1600000  69.9700000 130.6450000  51.3020000  32.6920000 140.7640000
  52.0280000  33.1030000 141.2330000  51.1660000  31.8590000 141.2160000
  80.1520000  84.6090000 152.5940000  79.7330000  83.9050000 152.0980000
  80.1440000  85.3590000 151.9990000  65.7790000  73.1960000 161.0920000
  66.0390000  73.9340000 160.5400000  65.1390000  72.7170000 160.5650000
  39.6190000  58.2420000 128.7140000  40.4850000  57.8470000 128.8090000
  39.0350000  57.5020000 128.5450000  57.9280000  82.4660000 157.2340000
  57.6540000  83.1840000 156.6640000  57.6580000  82.7390000 158.1110000
  54.0630000  70.1000000 161.1640000  54.3390000  70.0210000 160.2520000
  53.5160000  70.8860000 161.1820000  56.1570000  39.1160000 159.6050000
  56.5850000  38.4790000 160.1760000  55.3800000  38.6610000 159.2780000
  82.1650000  66.2250000 130.4920000  81.8710000  65.8780000 131.3340000
  81.8710000  65.5780000 129.8500000  43.6180000  47.5830000 148.5200000
  42.7030000  47.3010000 148.5280000  44.1200000  46.7670000 148.5010000
  50.6060000  75.3310000 155.2420000  50.6390000  74.6630000 154.5570000
  51.3800000  75.8740000 155.0850000  67.4540000  56.9120000 132.6590000
  67.1630000  56.7790000 133.5610000  66.7210000  56.6090000 132.1230000
  79.0530000  49.4080000 126.3000000  79.3730000  49.9810000 125.6040000
  78.2420000  49.0370000 125.9510000  84.2810000  35.9960000 142.6090000
  83.8270000  36.1840000 143.4300000  83.5890000  35.7120000 142.0110000
  50.2220000  40.9850000 142.7320000  50.9680000  41.0600000 143.3270000
  50.0040000  41.8900000 142.5060000  35.7570000  86.6780000 138.6860000
  36.3400000  86.4130000 137.9740000  34.8890000  86.3910000 138.4040000
  77.0690000  54.4960000 145.7240000  77.9540000  54.1410000 145.8020000
  76.5310000  53.7460000 145.4700000  78.6460000  53.6730000 134.9060000
  78.1430000  53.9910000 134.1570000  78.9940000  54.4660000 135.3160000
  84.2140000  77.6530000 163.3900000  83.5340000  78.3260000 163.4360000
  83.9210000  76.9750000 164.0000000  52.6620000  41.6840000 127.8980000
  53.4760000  41.9850000 127.4940000  51.9850000  41.8800000 127.2490000
  86.0570000  81.9930000 159.1920000  86.3510000  81.0860000 159.2640000
  85.1020000  81.9350000 159.1670000  58.8140000  62.4020000 161.6440000
  59.6980000  62.4530000 162.0080000  58.8880000  61.7770000 160.9220000
  68.1510000  59.5130000 145.3930000  68.7150000  58.7400000 145.3910000
  68.7130000  60.2200000 145.7130000  52.3560000  50.8070000 124.3420000
  52.4010000  51.2640000 123.5020000  51.4930000  51.0300000 124.6900000
  71.1860000  54.4670000 149.4600000  71.2020000  54.7200000 148.5370000
  72.0910000  54.2260000 149.6580000  66.3300000  80.4060000 156.2650000
  66.5230000  81.1200000 156.8730000  67.1900000  80.0840000 155.9930000
  86.3130000  74.3030000 163.6480000  85.7790000  73.5780000 163.9730000
  85.8910000  75.0880000 164.0000000  66.6540000  31.2970000 123.8510000
  66.5930000  32.2510000 123.8800000  65.7450000  31.0000000 123.7940000
  82.1010000  88.9650000 156.3160000  82.1600000  88.4540000 155.5080000
  83.0000000  89.0000000 156.6440000  72.1320000  86.7340000 138.3410000
  72.1600000  85.8960000 137.8800000  73.0480000  87.0040000 138.4070000
  85.4070000  45.8810000 146.2310000  84.8970000  46.4530000 145.6580000
  86.2580000  46.3150000 146.3070000  35.7440000  51.5860000 126.3190000
  35.6150000  52.0180000 127.1630000  36.0660000  52.2780000 125.7420000
  62.1880000  79.2240000 134.7600000  61.3350000  79.5040000 134.4290000
  62.7660000  79.9690000 134.5940000  54.5920000  68.6630000 155.0300000
  54.1270000  67.8820000 155.3300000  54.8970000  68.4370000 154.1510000
  70.2530000  53.2800000 152.0690000  70.2550000  52.4250000 151.6400000
  71.1540000  53.4000000 152.3710000  62.1630000  75.6910000 147.2140000
  63.0020000  75.2550000 147.3620000  61.5730000  74.9900000 146.9360000
  39.3580000  45.1980000 125.5920000  38.5580000  44.7060000 125.7740000
  39.5670000  45.6310000 126.4200000  67.9340000  52.2230000 152.5500000
  67.9350000  52.2290000 153.5070000  67.7520000  53.1300000 152.3040000
  58.6670000  58.5900000 148.8430000  59.3040000  57.9300000 149.1160000
  59.1550000  59.1650000 148.2530000  57.8370000  80.9810000 133.9390000
  57.3940000  80.1700000 133.6900000  58.7670000  80.7540000 133.9500000
  85.6690000  77.4150000 158.9770000  85.6480000  78.3660000 158.8770000
  86.5940000  77.2090000 159.1130000  34.0760000  50.1710000 130.4870000
  34.0060000  49.6340000 131.2760000  33.1690000  50.3320000 130.2250000
  63.6440000  61.6530000 151.2420000  62.9320000  61.4250000 150.6460000
  63.4450000  62.5470000 151.5240000  50.3730000  56.0530000 163.9680000
  49.7030000  55.3710000 164.0000000  51.2020000  55.5750000 163.9490000
  64.5800000  82.5570000 156.2310000  64.2060000  82.5250000 157.1120000
  65.2550000  83.2340000 156.2810000  80.1310000  36.7650000 161.6870000
  79.4390000  36.2360000 162.0830000  80.8450000  36.1460000 161.5300000
  80.1990000  43.0460000 126.1680000  80.7100000  43.3950000 125.4380000
  80.8090000  43.0380000 126.9060000  31.1570000  46.9300000 147.2770000
  32.1070000  47.0150000 147.3540000  31.0000000  45.9860000 147.2600000
  61.9120000  52.9490000 161.6930000  62.8520000  52.7830000 161.7690000
  61.8110000  53.8700000 161.9330000  72.6430000  59.8760000 154.5400000
  71.7690000  60.0620000 154.1980000  73.1840000  60.6010000 154.2250000
  31.6030000  63.1350000 156.7550000  31.0550000  62.3950000 156.4930000
  31.0000000  63.8770000 156.7990000  37.4120000  40.2010000 133.9710000
  38.0450000  39.9530000 134.6440000  37.5850000  41.1290000 133.8100000
  41.6280000  34.5200000 160.1110000  42.4390000  34.0300000 160.2460000
  41.9160000  35.4160000 159.9340000  73.5980000  83.8210000 132.4860000
  72.6690000  83.6800000 132.6670000  73.9680000  82.9400000 132.4270000
  68.8810000  67.0530000 147.3530000  68.8010000  66.9410000 148.3010000
  68.8490000  68.0000000 147.2200000  37.2190000  71.4200000 133.4900000
  36.6550000  71.1310000 134.2070000  38.1040000  71.1930000 133.7750000
  56.4250000  54.8930000 158.6190000  57.3280000  55.1740000 158.4750000
  55.9450000  55.7060000 158.7820000  53.1250000  88.9960000 126.5480000
  53.6760000  88.5330000 127.1780000  52.2550000  89.0000000 126.9470000
  35.2920000  72.3650000 123.5100000  34.3360000  72.4060000 123.5000000
  35.4930000  71.4290000 123.5110000  38.7930000  45.6990000 151.2410000
  39.5670000  45.1630000 151.0690000  38.3430000  45.2480000 151.9570000
  39.0330000  45.8450000 161.6650000  38.2260000  45.6270000 161.1980000
  39.3050000  46.6850000 161.2950000  75.1190000  83.9810000 126.2100000
  75.5410000  84.8400000 126.2140000  75.8460000  83.3580000 126.2090000
  46.5860000  55.7570000 149.5430000  46.4070000  56.6900000 149.6520000
  47.3640000  55.5970000 150.0780000  81.6600000  80.2700000 131.1750000
  80.7380000  80.5230000 131.2000000  81.7200000  79.5190000 131.7660000
  34.2270000  87.5930000 123.5000000  33.9760000  86.6690000 123.5000000
  33.3950000  88.0670000 123.5000000  31.9170000  64.1030000 123.5090000
  32.7850000  64.5050000 123.5000000  32.0900000  63.1610000 123.5150000
  73.7460000  64.0860000 131.3910000  73.6010000  64.7350000 132.0790000
  73.0550000  64.2560000 130.7510000  49.1030000  80.2310000 143.9320000
  49.5880000  79.4410000 144.1700000  48.2850000  79.9050000 143.5560000
  47.2030000  37.5030000 163.5240000  46.3380000  37.9080000 163.5640000
  47.8150000  38.2400000 163.5330000  74.7910000  63.9130000 151.4950000
  74.3140000  63.5450000 152.2390000  74.5890000  64.8490000 151.5210000
  87.3940000  76.9540000 131.4390000  87.4570000  77.9060000 131.5070000
  88.1670000  76.6980000 130.9350000  86.0400000  60.3790000 145.4070000
  85.6640000  59.5590000 145.0870000  85.3370000  61.0210000 145.3070000
  37.1430000  86.0160000 127.6340000  36.8070000  86.1340000 126.7460000
  36.3790000  86.1350000 128.1980000  79.3920000  62.3830000 154.5580000
  78.7300000  62.1280000 155.2000000  79.8980000  63.0690000 154.9940000
  45.8290000  81.3080000 145.6020000  45.8370000  80.4870000 145.1090000
  45.1170000  81.2030000 146.2330000  48.1940000  46.1850000 158.2080000
  48.0190000  46.7820000 157.4800000  48.2870000  46.7560000 158.9700000
  33.3870000  46.5020000 154.9680000  34.1580000  47.0540000 154.8380000
  32.6930000  47.1130000 155.2150000  62.5830000  53.8460000 151.0210000
  61.9560000  53.2250000 151.3930000  63.3890000  53.3400000 150.9170000
  79.1380000  74.8920000 141.2450000  78.4530000  74.5100000 141.7920000
  78.8910000  74.6540000 140.3510000  52.9970000  76.5820000 146.6170000
  53.7310000  75.9710000 146.6860000  52.9870000  76.8410000 145.6960000
  88.5600000  43.7010000 125.8830000  89.0000000  43.8760000 126.7150000
  89.0000000  42.9230000 125.5380000  73.7090000  42.7460000 126.1410000
  74.4580000  42.4210000 125.6420000  74.0830000  43.3830000 126.7490000
  82.4690000  86.6110000 159.0530000  82.3420000  87.3770000 158.4940000
  83.4040000  86.6170000 159.2600000  88.9910000  56.4690000 135.7720000
  88.9990000  57.3200000 136.2110000  89.0000000  56.6820000 134.8380000
  60.9230000  42.6940000 150.1580000  60.7140000  43.5680000 149.8300000
  60.0880000  42.2250000 150.1380000  88.9610000  36.4940000 140.1950000
  89.0000000  35.5740000 140.4550000  88.8800000  36.4710000 139.2410000
  78.7140000  61.9980000 139.1640000  79.2230000  62.7750000 139.3950000
  79.2110000  61.2680000 139.5340000  75.1730000  51.7040000 155.5710000
  74.3250000  51.5090000 155.9690000  75.1910000  52.6580000 155.4980000
  76.9050000  35.9660000 157.9750000  77.7480000  35.6400000 157.6600000
  76.2650000  35.3340000 157.6470000  58.5110000  49.9760000 125.1110000
  57.7310000  49.4700000 124.8830000  58.1730000  50.8340000 125.3700000
  33.5420000  47.9930000 149.1760000  34.1970000  47.6930000 148.5460000
  33.8700000  48.8410000 149.4770000  66.4950000  41.6570000 142.2780000
  67.3760000  41.3410000 142.4760000  66.6350000  42.4560000 141.7690000
  88.7880000  51.2290000 139.1640000  89.0000000  51.3440000 138.2370000
  88.9970000  52.0730000 139.5640000  44.5030000  85.6010000 161.1040000
  44.2970000  86.1950000 161.8260000  44.9950000  84.8890000 161.5120000
  73.2820000  46.5050000 144.0130000  72.8140000  46.9460000 144.7210000
  73.8070000  47.1940000 143.6060000  37.4700000  57.3360000 125.5070000
  37.7910000  57.4140000 124.6080000  36.6820000  56.7970000 125.4340000
  51.4120000  61.9570000 131.6430000  51.2970000  61.0580000 131.9500000
  51.3890000  62.4880000 132.4390000  76.4680000  85.7160000 150.2580000
  75.9000000  84.9570000 150.1320000  77.3520000  85.3510000 150.2940000
  36.3390000  35.1190000 146.1370000  36.8570000  34.9230000 146.9170000
  35.8740000  35.9270000 146.3540000  88.5410000  54.6780000 150.4780000
  87.5910000  54.6000000 150.5600000  88.8850000  54.2670000 151.2710000
  33.2190000  63.4130000 152.0030000  32.7650000  63.7680000 151.2390000
  33.0890000  62.4660000 151.9410000  47.7720000  61.0300000 143.0600000
  48.7280000  61.0080000 143.0370000  47.5100000  60.1090000 143.0640000
  83.3390000  61.5780000 123.5000000  83.0750000  60.6690000 123.6400000
  83.6210000  61.8820000 124.3630000  37.0970000  59.5340000 129.8830000
  37.0680000  60.4730000 130.0680000  37.0870000  59.4780000 128.9270000
  81.7330000  33.2950000 147.6190000  80.9760000  33.5710000 147.1040000
  82.3640000  32.9820000 146.9700000  46.9090000  69.7590000 131.7010000
  47.1160000  70.6310000 132.0360000  47.7470000  69.4170000 131.3900000
  81.6350000  31.1330000 153.2570000  80.8730000  31.0190000 152.6890000
  81.2950000  31.0000000 154.1420000  77.6150000  53.8570000 137.5820000
  77.2210000  54.5900000 137.1080000  77.1250000  53.8100000 138.4030000
  75.7130000  61.7190000 148.4310000  75.5130000  61.5630000 149.3530000
  76.6670000  61.6600000 148.3780000  34.8610000  60.3430000 147.9610000
  35.7480000  60.7010000 147.9120000  34.4160000  60.6980000 147.1910000
  66.8930000  51.9640000 155.8010000  66.3590000  51.9840000 156.5950000
  67.6050000  52.5800000 155.9760000  84.0350000  53.8740000 137.9620000
  83.8480000  53.5770000 137.0720000  84.7780000  53.3390000 138.2420000
  33.9230000  51.4710000 123.8190000  34.2310000  50.7720000 124.3960000
  34.7230000  51.9010000 123.5150000  58.1830000  48.7340000 151.4780000
  58.9380000  49.0400000 151.9800000  58.5610000  48.2290000 150.7580000
  69.0050000  35.6650000 131.9420000  68.4470000  36.2500000 131.4300000
  68.4410000  34.9200000 132.1530000  68.3400000  49.5270000 129.3330000
  68.1660000  48.5870000 129.2780000  68.9240000  49.6190000 130.0860000
  65.9900000  66.8320000 137.1460000  66.7380000  66.2570000 137.3080000
  66.3490000  67.5540000 136.6300000  83.4990000  56.7950000 158.5950000
  84.0090000  56.3260000 157.9350000  82.5880000  56.6680000 158.3300000
  58.8920000  85.1340000 123.5000000  58.9170000  84.7910000 124.3930000
  59.3760000  85.9600000 123.5470000  76.0400000  54.0230000 163.9980000
  76.0100000  53.6980000 163.0980000  76.7560000  54.6590000 164.0000000
  52.7010000  68.1330000 160.2710000  52.5990000  67.3260000 159.7660000
  52.9940000  67.8400000 161.1340000  88.4200000  48.0100000 151.2650000
  89.0000000  48.7710000 151.2530000  89.0000000  47.2630000 151.1160000
  81.7780000  71.9570000 132.0310000  81.9240000  71.0130000 132.0920000
  82.5810000  72.2990000 131.6350000  54.7150000  53.1400000 126.2450000
  54.2980000  53.9100000 126.6320000  54.0250000  52.7300000 125.7240000
  81.4140000  57.6370000 161.3200000  82.2320000  58.1110000 161.4640000
  80.7490000  58.1660000 161.7600000  31.1640000  55.6950000 156.1290000
  31.0000000  56.6380000 156.1460000  31.0190000  55.4090000 157.0310000
  61.3160000  36.0510000 147.2780000  61.5420000  36.9770000 147.1960000
  62.1520000  35.6140000 147.4430000  71.5370000  44.7460000 145.0530000
  71.1470000  43.8880000 144.8870000  70.8630000  45.3720000 144.7890000
  70.6600000  51.0140000 155.1410000  71.0770000  51.7840000 154.7550000
  69.7620000  51.0350000 154.8090000  63.2270000  50.5390000 126.3070000
  63.5690000  50.0070000 127.0250000  63.7120000  51.3630000 126.3670000
  39.3360000  36.2970000 144.7980000  38.6670000  36.2690000 145.4820000
  39.3420000  37.2080000 144.5040000  83.9730000  42.0810000 134.8980000
  83.9180000  43.0360000 134.9390000  84.9120000  41.8960000 134.8700000
  71.8520000  31.1540000 138.0260000  70.9290000  31.0950000 138.2720000
  71.9410000  32.0240000 137.6360000  41.3470000  36.4770000 156.7090000
  40.9080000  35.9460000 156.0460000  41.6990000  37.2240000 156.2240000
  40.9250000  85.7290000 124.8910000  41.5720000  85.0240000 124.8910000
  40.0800000  85.2790000 124.8930000  72.5180000  55.9760000 140.7660000
  72.6590000  56.8910000 140.5230000  73.3920000  55.6470000 140.9780000
  59.5970000  31.0000000 143.7730000  58.9670000  31.5380000 143.2930000
  60.4370000  31.4430000 143.6450000  70.7720000  80.0350000 140.3840000
  71.1400000  80.4000000 141.1890000  69.9860000  79.5680000 140.6710000
  82.4470000  81.1230000 163.5230000  81.8550000  80.5410000 164.0000000
  83.2820000  81.0490000 163.9860000  47.1300000  56.5650000 153.0220000
  47.9480000  56.4530000 153.5050000  47.1960000  57.4390000 152.6370000
  82.9010000  88.3300000 126.7900000  82.1360000  87.7540000 126.8120000
  83.6460000  87.7350000 126.7040000  40.7610000  80.6080000 130.2700000
  41.2130000  81.0150000 131.0090000  41.4600000  80.2060000 129.7530000
  59.6650000  70.5990000 157.6860000  60.1750000  69.8730000 158.0450000
  60.1740000  70.9000000 156.9320000  77.0220000  59.0910000 139.6570000
  77.9630000  59.1020000 139.4870000  76.6760000  58.4320000 139.0550000
  61.9820000  83.3670000 150.8020000  61.4800000  83.1890000 150.0070000
  62.7610000  82.8150000 150.7230000  34.1500000  31.6660000 163.7680000
  33.6370000  32.3800000 163.3930000  33.5020000  31.0000000 164.0000000
  68.7960000  31.2450000 155.5450000  67.9150000  31.0000000 155.8260000
  69.3570000  31.0140000 156.2850000  41.0900000  65.4590000 159.8140000
  40.5170000  64.7650000 159.4910000  40.5090000  66.2080000 159.9480000
  71.2850000  63.4510000 149.7940000  70.7870000  62.6410000 149.9050000
  72.1950000  63.1650000 149.7190000  48.6880000  71.3680000 127.9960000
  48.4450000  71.3970000 127.0710000  48.9950000  72.2530000 128.1920000
  84.7510000  35.8280000 132.7110000  84.2330000  35.1270000 132.3160000
  84.8130000  35.5900000 133.6360000  47.6590000  52.5580000 150.6360000
  48.5070000  52.2660000 150.9680000  47.8750000  53.1550000 149.9190000
  48.9880000  83.4920000 129.6350000  49.5430000  83.7530000 128.9000000
  49.1190000  82.5470000 129.7110000  69.6660000  72.1730000 132.0900000
  70.5910000  72.3020000 132.2950000  69.2830000  71.8460000 132.9050000
  36.3960000  48.8730000 128.6060000  36.5250000  49.8090000 128.4520000
  35.8980000  48.8310000 129.4220000  75.9210000  80.0970000 137.0120000
  74.9980000  79.8870000 136.8730000  75.9260000  81.0330000 137.2140000
  40.2960000  33.6950000 147.3790000  40.8580000  34.0730000 148.0550000
  39.4650000  34.1620000 147.4690000  85.6460000  57.6230000 162.2760000
  86.1030000  56.7830000 162.2370000  84.8320000  57.4760000 161.7920000
  74.6570000  54.0520000 158.1700000  74.3760000  53.2180000 157.7940000
  75.2380000  53.8070000 158.8900000  45.7420000  58.4650000 163.5330000
  45.2200000  59.2670000 163.5550000  46.5470000  58.6900000 164.0000000
  36.3470000  88.5210000 127.3280000  36.6300000  89.0000000 126.5490000
  37.1200000  88.5030000 127.8930000  74.6150000  67.4550000 134.7890000
  75.4890000  67.3710000 134.4090000  74.3080000  66.5530000 134.8850000
  45.2780000  70.5160000 140.8430000  46.1410000  70.5870000 140.4360000
  44.7080000  70.1980000 140.1430000  78.2990000  31.5850000 145.9630000
  77.8970000  31.0000000 146.6050000  78.6430000  31.0000000 145.2880000
  83.0100000  46.4220000 158.3860000  83.5050000  45.6480000 158.1190000
  82.0920000  46.1630000 158.2960000  72.0540000  83.1090000 139.4350000
  71.9050000  82.1800000 139.6080000  71.6640000  83.2580000 138.5730000
  46.7570000  38.6830000 161.1050000  47.4960000  38.9710000 160.5690000
  46.7920000  37.7270000 161.0680000  31.2630000  68.9680000 130.2240000
  31.0860000  69.4640000 129.4250000  31.0000000  69.5550000 130.9340000
  41.8190000  80.0560000 163.9300000  42.5900000  79.4930000 164.0010000
  41.0770000  79.4530000 163.9810000  82.1340000  35.5490000 139.9820000
  82.6760000  34.7740000 139.8380000  81.6410000  35.6520000 139.1680000
  80.0660000  82.8840000 125.1290000  79.5830000  82.3190000 125.7330000
  80.7450000  82.3170000 124.7620000  79.9720000  35.7030000 148.0530000
  79.7430000  36.6010000 148.2910000  79.7220000  35.1810000 148.8150000
  80.1550000  36.2920000 136.9110000  79.3130000  36.7400000 136.8230000
  80.7880000  36.9970000 137.0500000  39.1120000  60.2570000 141.6050000
  40.0530000  60.0910000 141.6480000  38.9940000  60.7600000 140.7990000
  40.9230000  55.0920000 147.1550000  40.8000000  54.8970000 146.2260000
  41.8730000  55.0930000 147.2760000  86.7390000  36.5690000 154.6110000
  87.4470000  36.1510000 155.1000000  86.3570000  35.8620000 154.0900000
  86.5360000  60.3160000 130.7400000  86.7580000  59.5060000 130.2820000
  85.5800000  60.3580000 130.7050000  80.2230000  34.0040000 144.7350000
  79.9670000  33.0910000 144.8670000  81.1240000  33.9560000 144.4140000
  74.8590000  43.0540000 151.9720000  75.7100000  43.2390000 151.5760000
  74.9450000  43.3540000 152.8770000  86.5770000  48.7480000 130.6660000
  85.6600000  48.9830000 130.8110000  86.5560000  47.8130000 130.4610000
  51.4670000  75.4680000 160.7840000  51.1000000  74.6850000 161.1940000
  51.5380000  76.1020000 161.4980000  51.3240000  55.2240000 128.8780000
  50.6850000  55.9290000 128.9720000  52.1210000  55.6610000 128.5770000
  32.6030000  80.3100000 136.7790000  33.3730000  80.2130000 136.2180000
  32.6950000  79.6160000 137.4330000  89.0000000  34.0730000 126.3840000
  89.0000000  33.8950000 127.3250000  89.0000000  33.2070000 125.9760000
  43.0690000  59.8130000 141.3670000  42.5850000  59.0570000 141.6990000
  42.5070000  60.5630000 141.5620000  38.0650000  55.7830000 160.9370000
  38.6960000  55.3150000 161.4850000  37.9910000  56.6470000 161.3420000
  34.6980000  45.6350000 147.1530000  35.3220000  44.9100000 147.1590000
  33.8590000  45.2310000 147.3780000  31.0000000  32.5770000 163.4590000
  31.3130000  33.3020000 164.0000000  31.1330000  31.7980000 164.0000000
  74.4490000  89.0000000 154.3730000  73.8460000  88.3470000 154.0160000
  74.8630000  88.5630000 155.1170000  80.8810000  81.2790000 140.5310000
  81.5680000  80.8950000 139.9860000  80.1760000  81.4870000 139.9170000
  33.4590000  83.9200000 153.9410000  33.2350000  83.0560000 154.2860000
  34.3680000  83.8340000 153.6510000  80.1790000  75.3570000 148.5400000
  80.0300000  74.7810000 147.7910000  80.0700000  76.2410000 148.1880000
  38.5680000  60.5710000 123.5030000  38.5220000  59.6150000 123.5060000
  37.6530000  60.8550000 123.5000000  52.9170000  50.3470000 153.4330000
  53.0970000  50.9320000 152.6970000  53.0230000  50.8990000 154.2090000
  42.0230000  87.2280000 133.4550000  42.2760000  86.3070000 133.3880000
  42.8420000  87.6900000 133.6310000  54.1000000  66.6360000 130.2790000
  55.0120000  66.6190000 129.9890000  54.1280000  67.0650000 131.1350000
  68.8400000  55.7110000 150.2570000  68.8450000  54.7550000 150.2910000
  68.9490000  55.9190000 149.3290000  85.7100000  42.7230000 146.3540000
  86.0940000  43.3680000 146.9470000  86.4560000  42.3640000 145.8740000
  53.4240000  79.6830000 127.4090000  53.7020000  79.1620000 128.1620000
  52.8470000  79.1000000 126.9140000  41.8570000  41.5780000 160.4490000
  41.9360000  40.8070000 159.8880000  41.7550000  41.2230000 161.3320000
  60.2770000  83.7450000 141.5600000  60.3660000  84.6940000 141.4760000
  61.0790000  83.3940000 141.1720000  40.7550000  46.0620000 136.0010000
  40.1530000  45.4300000 135.6080000  40.2410000  46.8660000 136.0810000
  51.1980000  53.6160000 126.3480000  51.6610000  52.8050000 126.5560000
  51.8850000  54.2180000 126.0590000  63.8100000  60.6360000 126.5270000
  64.5400000  60.0180000 126.5060000  63.8900000  61.1310000 125.7110000
  81.0150000  72.1920000 149.3890000  81.4040000  73.0200000 149.1090000
  81.3780000  72.0380000 150.2610000  43.2050000  44.2680000 146.5670000
  42.8290000  44.9780000 147.0870000  42.9070000  44.4400000 145.6740000
  41.5880000  50.4080000 152.3230000  41.6620000  50.0090000 153.1890000
  41.4020000  51.3310000 152.4990000  36.3800000  59.0780000 163.4320000
  36.7730000  58.5240000 162.7580000  37.1120000  59.3210000 164.0000000
  67.1730000  61.1720000 153.3730000  67.1510000  61.9130000 153.9780000
  68.1050000  60.9940000 153.2450000  39.5550000  46.5920000 148.9310000
  39.6150000  47.5090000 148.6670000  40.4640000  46.3130000 149.0390000
  66.5280000  54.1130000 157.9780000  67.2470000  54.6160000 157.5950000
  66.6870000  54.1500000 158.9220000  31.5740000  55.1610000 137.5000000
  31.0000000  55.2030000 136.7350000  32.0880000  54.3640000 137.3720000
  81.7560000  72.9960000 152.5390000  82.0340000  72.1090000 152.7690000
  82.5690000  73.4570000 152.3310000  59.6810000  35.9290000 125.9200000
  60.0840000  35.1770000 126.3530000  58.8390000  36.0390000 126.3630000
  54.1220000  55.4070000 160.4660000  53.6480000  54.7790000 159.9220000
  53.8240000  55.2240000 161.3580000  39.5960000  70.3520000 138.8360000
  39.4120000  70.0670000 137.9410000  38.9120000  69.9400000 139.3640000
  61.5460000  47.9030000 126.0620000  62.3810000  48.0560000 125.6200000
  61.1420000  48.7700000 126.1190000  41.3440000  67.4450000 141.6460000
  42.0170000  66.8250000 141.9250000  41.7410000  67.9180000 140.9140000
  39.4420000  43.3190000 129.3840000  39.7010000  43.2350000 128.4660000
  39.0600000  42.4690000 129.6040000  55.5040000  63.3780000 146.5720000
  56.3800000  63.7600000 146.6060000  55.5770000  62.5640000 147.0700000
  86.2660000  40.9460000 157.8460000  86.4580000  40.5040000 158.6730000
  86.3720000  40.2660000 157.1800000  69.7900000  79.6900000 143.1690000
  68.9440000  80.1360000 143.1300000  69.5680000  78.7620000 143.2450000
  79.3110000  64.3380000 144.9690000  78.9850000  64.4350000 144.0740000
  79.2050000  65.2060000 145.3590000  59.8060000  76.2770000 142.6480000
  59.4360000  76.4420000 143.5150000  59.7530000  77.1220000 142.2000000
  53.0990000  33.4810000 128.3280000  52.8790000  33.4660000 129.2590000
  54.0540000  33.5470000 128.3080000  64.0400000  40.8050000 148.6880000
  63.5260000  40.8810000 149.4910000  64.5150000  39.9800000 148.7840000
  61.4630000  73.5110000 134.4590000  60.6800000  73.9220000 134.8260000
  61.1600000  72.6590000 134.1410000  44.9460000  50.3540000 163.9740000
  44.1680000  50.2750000 163.4220000  45.6790000  50.3440000 163.3580000
  49.3780000  88.6520000 149.5110000  49.0300000  88.9060000 148.6570000
  50.2700000  89.0000000 149.5200000  58.4700000  69.8840000 149.8900000
  59.3400000  69.5110000 149.7450000  58.5540000  70.8000000 149.6230000
  34.5450000  40.3350000 145.9230000  33.6600000  40.6990000 145.8920000
  35.1190000  41.1010000 145.9400000  73.3830000  34.2870000 157.8850000
  74.1760000  33.9260000 157.4890000  72.8490000  33.5210000 158.0960000
  54.9960000  61.2820000 143.1290000  54.5080000  60.4770000 143.3030000
  55.4550000  61.1120000 142.3060000  49.6740000  33.4050000 159.1110000
  49.8470000  33.3300000 158.1730000  48.7490000  33.6460000 159.1650000
  31.1810000  38.2900000 144.3250000  31.0000000  37.6980000 145.0550000
  31.8210000  38.9120000 144.6740000  76.3320000  32.8480000 126.1270000
  76.1480000  33.7010000 126.5190000  76.6690000  32.3190000 126.8510000
  87.3970000  52.2490000 132.4980000  88.3410000  52.1920000 132.3510000
  87.1470000  51.3730000 132.7940000  87.4170000  48.6540000 141.0960000
  87.0930000  49.5380000 140.9210000  88.0350000  48.4800000 140.3860000
  36.8970000  58.8300000 139.9810000  37.8040000  58.6390000 140.2170000
  36.3760000  58.3840000 140.6500000  72.5390000  52.0540000 142.5820000
  71.6780000  51.6860000 142.3830000  73.0860000  51.2920000 142.7760000
  55.9410000  79.9350000 146.5800000  55.4840000  80.4100000 145.8860000
  55.2580000  79.7250000 147.2170000  49.9400000  72.6570000 137.7800000
  50.8940000  72.7070000 137.8340000  49.6350000  72.9790000 138.6290000
  41.8630000  71.4160000 147.3470000  42.6770000  71.5190000 147.8390000
  41.9830000  70.6070000 146.8500000  34.3690000  81.1020000 131.6350000
  33.7250000  81.2960000 132.3150000  34.3780000  81.8840000 131.0830000
  70.4700000  87.5640000 126.1980000  71.3580000  87.8620000 126.3910000
  70.5910000  86.7690000 125.6770000  36.2570000  40.7120000 157.8010000
  36.4660000  39.7910000 157.6440000  35.3180000  40.7160000 157.9890000
  64.7770000  36.1680000 154.3310000  64.0580000  35.9220000 154.9120000
  64.4070000  36.1010000 153.4500000  37.8570000  46.7360000 143.3240000
  37.2570000  46.1450000 142.8700000  38.6620000  46.2280000 143.4270000
  72.0210000  51.6910000 149.9990000  72.8150000  51.9700000 150.4560000
  71.7880000  50.8580000 150.4110000  58.3920000  81.9180000 128.7360000
  57.9500000  81.1480000 128.3790000  57.6810000  82.4830000 129.0410000
  50.7790000  40.3360000 135.9000000  51.5290000  40.8560000 135.6140000
  50.1420000  40.4210000 135.1890000  65.1310000  43.8290000 151.8410000
  64.7760000  44.6600000 152.1540000  64.8980000  43.1970000 152.5210000
  31.8960000  88.9540000 137.2380000  32.4410000  89.0000000 138.0230000
  31.0000000  88.8960000 137.5710000  82.5360000  81.1170000 149.8980000
  82.3980000  80.3650000 149.3220000  82.9110000  81.7900000 149.3290000
  57.0070000  87.9020000 156.3050000  56.9960000  87.2850000 157.0360000
  56.7430000  87.3810000 155.5460000  45.6800000  63.6720000 154.4140000
  45.3840000  64.4780000 154.8380000  45.0650000  63.0030000 154.7150000
  48.2010000  72.4520000 162.0160000  48.9720000  72.8620000 161.6260000
  48.5030000  71.5860000 162.2920000  50.6190000  82.5910000 134.3850000
  51.1200000  81.9070000 133.9400000  49.8390000  82.1420000 134.7130000
  52.4900000  68.4260000 151.4010000  53.1440000  68.1480000 152.0410000
  51.9900000  67.6320000 151.2080000  87.0340000  53.5720000 153.0850000
  86.1660000  53.8130000 153.4080000  86.8630000  52.9640000 152.3660000
  75.6820000  84.2520000 123.7890000  74.7760000  84.1400000 123.5000000
  76.1210000  83.4440000 123.5210000  52.4420000  33.9150000 124.4700000
  51.8680000  33.2330000 124.1220000  53.2620000  33.4610000 124.6660000
  79.5270000  48.9350000 145.2610000  79.3150000  48.3600000 144.5260000
  79.5480000  48.3540000 146.0220000  55.0640000  69.3380000 146.0610000
  55.7980000  69.9330000 145.9100000  54.4130000  69.8720000 146.5180000
  46.7620000  35.6100000 137.3190000  46.3910000  36.0480000 136.5530000
  46.7600000  34.6800000 137.0880000  38.9720000  34.9860000 124.8380000
  39.2350000  35.3630000 123.9980000  38.1460000  34.5390000 124.6520000
  73.2920000  77.3310000 154.1310000  73.7760000  77.7210000 154.8590000
  72.9980000  78.0790000 153.6110000  82.6870000  63.8570000 149.1050000
  81.7320000  63.9070000 149.0560000  82.9730000  64.7700000 149.1370000
  37.7820000  34.1890000 161.5090000  37.5730000  35.1140000 161.3850000
  38.6390000  34.1920000 161.9380000  57.5220000  58.3470000 159.5700000
  57.8260000  57.4860000 159.2850000  56.7990000  58.1610000 160.1690000
  31.5510000  49.7740000 149.5180000  31.0000000  50.5570000 149.5370000
  31.0000000  49.0840000 149.8890000  82.6860000  71.6380000 123.5620000
  82.4710000  71.7610000 124.4860000  83.6150000  71.8620000 123.5000000
  51.8900000  84.7020000 147.3290000  51.1350000  84.1400000 147.5020000
  52.6480000  84.1330000 147.4620000  79.2920000  56.9010000 133.3910000
  79.6140000  56.6430000 134.2540000  78.8560000  56.1180000 133.0540000
  32.6530000  43.4450000 127.7110000  32.8880000  44.3430000 127.9450000
  33.2840000  43.2000000 127.0340000  67.3100000  69.4880000 142.0450000
  67.4870000  68.6030000 141.7270000  68.1400000  69.9530000 141.9340000
  69.2500000  33.3450000 144.4160000  68.3680000  33.5960000 144.1430000
  69.2970000  33.6000000 145.3380000  70.8940000  77.6930000 151.1210000
  71.4410000  77.1860000 151.7200000  71.0670000  77.3140000 150.2590000
  51.6650000  38.1410000 149.2820000  52.3990000  38.1810000 149.8940000
  51.7000000  38.9740000 148.8110000  76.3140000  61.4880000 138.6850000
  75.9010000  62.3510000 138.6910000  75.6020000  60.8820000 138.4780000
  42.4120000  81.9070000 153.0910000  41.9470000  82.3040000 153.8280000
  42.0140000  82.3030000 152.3150000  82.6500000  46.0310000 125.4570000
  82.0300000  46.3800000 126.0980000  82.6830000  46.6960000 124.7690000
  67.2130000  83.6550000 126.3830000  67.7950000  84.2850000 125.9610000
  67.2830000  82.8650000 125.8460000  88.6470000  76.6960000 157.4610000
  88.6390000  77.6420000 157.3150000  88.9040000  76.5970000 158.3780000
  67.6260000  43.3540000 123.5360000  68.5820000  43.3720000 123.5000000
  67.4080000  42.4290000 123.6520000  74.8660000  63.0860000 160.9960000
  74.2240000  63.0250000 160.2890000  75.0230000  64.0260000 161.0960000
  36.3200000  89.0000000 163.9470000  36.0700000  88.0780000 164.0000000
  37.1980000  88.9890000 163.5660000  32.7520000  41.8700000 136.5010000
  32.2900000  41.0610000 136.7230000  32.5010000  42.0470000 135.5940000
  49.3660000  60.8070000 156.8620000  48.6580000  61.4480000 156.8020000
  49.0730000  60.0740000 156.3200000  61.3120000  59.0010000 138.1890000
  61.1380000  59.9040000 137.9240000  60.6730000  58.4800000 137.7010000
  78.3120000  64.3550000 141.1050000  78.4890000  65.1950000 140.6830000
  77.7660000  64.5760000 141.8600000  68.2570000  75.3520000 139.0610000
  67.6300000  75.4380000 139.7780000  69.1130000  75.4520000 139.4770000
  58.7560000  56.7310000 133.0130000  57.9310000  56.2590000 132.8940000
  59.1790000  56.2930000 133.7520000  40.1220000  56.4220000 135.6330000
  40.6840000  56.8920000 136.2490000  39.4120000  56.0740000 136.1720000
  48.1600000  65.2730000 152.9290000  47.7380000  64.9410000 153.7210000
  48.6030000  64.5100000 152.5560000  34.3160000  74.2510000 125.8550000
  33.9760000  74.8960000 125.2350000  34.6670000  74.7730000 126.5760000
  45.5060000  49.2880000 138.0510000  45.6540000  48.8590000 137.2090000
  46.3650000  49.2900000 138.4740000  73.9960000  58.8750000 138.0140000
  73.0540000  58.7190000 137.9470000  74.1980000  58.7360000 138.9390000
  83.5100000  69.2150000 157.5540000  83.3050000  68.3650000 157.9430000
  83.0430000  69.8480000 158.0990000  31.9520000  89.0000000 163.7310000
  32.2790000  88.1420000 164.0000000  31.0000000  88.9270000 163.8040000
  79.2140000  71.1500000 133.0320000  79.2270000  72.1070000 133.0320000
  79.2240000  70.9100000 133.9590000  55.7950000  51.8990000 146.6160000
  55.1920000  51.9860000 145.8780000  55.2360000  51.6590000 147.3560000
  79.8480000  65.9310000 157.4850000  78.9320000  66.2060000 157.4510000
  80.2690000  66.4100000 156.7710000  42.6090000  81.6090000 146.5570000
  43.0140000  82.4170000 146.8700000  41.7720000  81.8880000 146.1840000
  41.0050000  47.1710000 131.0430000  40.5820000  48.0270000 130.9790000
  40.3890000  46.5670000 130.6270000  55.8690000  64.6450000 126.3700000
  55.0610000  65.1070000 126.1440000  56.3700000  64.6270000 125.5540000
  58.8320000  69.9400000 133.4630000  59.6690000  70.3590000 133.2640000
  59.0720000  69.1240000 133.9030000  35.5610000  72.8190000 149.7890000
  34.8290000  73.4230000 149.9130000  35.6460000  72.7370000 148.8390000
  63.4860000  66.2520000 123.5080000  64.3290000  65.7990000 123.5000000
  63.7140000  67.1820000 123.5180000  66.2150000  73.2570000 140.3920000
  65.9870000  73.9780000 140.9790000  66.1730000  72.4760000 140.9450000
  39.9410000  61.3280000 128.6210000  40.7060000  60.7810000 128.4440000
  39.2620000  60.7100000 128.8940000  55.6270000  73.0660000 127.8240000
  54.8360000  73.0940000 128.3600000  56.2450000  72.5410000 128.3340000
  62.0090000  47.9240000 137.7310000  62.2180000  48.3160000 138.5780000
  62.3920000  48.5220000 137.0890000  77.1340000  35.2710000 128.1970000
  77.8740000  35.8110000 128.4720000  76.5760000  35.8660000 127.6950000
  61.8430000  31.5980000 150.9060000  61.0880000  31.0110000 150.8660000
  62.5960000  31.0150000 151.0070000  56.6080000  58.1910000 144.2830000
  55.8570000  58.3000000 144.8660000  56.6070000  57.2590000 144.0630000
  54.5590000  70.6820000 123.5380000  53.6110000  70.8020000 123.5790000
  54.9130000  71.5710000 123.5090000  36.3370000  65.4280000 126.4140000
  35.7410000  66.1760000 126.4470000  35.8540000  64.7570000 125.9310000
  83.1410000  65.1790000 161.0040000  83.9520000  65.4240000 161.4480000
  83.4230000  64.8680000 160.1430000  55.7520000  82.2530000 154.4280000
  54.9010000  82.0150000 154.0610000  55.6360000  82.1750000 155.3750000
  69.7750000  87.3820000 139.8370000  69.3110000  86.8470000 139.1920000
  69.1020000  87.6290000 140.4710000  35.0030000  56.7830000 164.0000000
  35.8380000  56.3160000 163.9970000  34.3410000  56.0920000 163.9580000
  55.8250000  86.7870000 140.9500000  56.7120000  86.7300000 140.5960000
  55.2690000  86.9300000 140.1840000  31.5910000  55.4470000 127.2290000
  31.0000000  56.1530000 127.4900000  31.0250000  54.8120000 126.7870000
  39.1230000  31.5530000 124.0240000  39.8990000  31.0250000 123.8380000
  39.4660000  32.4280000 124.2090000  67.4090000  77.8280000 161.4620000
  68.3390000  78.0550000 161.4450000  67.2770000  77.2980000 160.6750000
  31.0030000  34.5060000 136.2200000  31.0050000  35.3830000 135.8360000
  31.9210000  34.3320000 136.4260000  55.7250000  88.9290000 148.9800000
  56.0130000  89.0000000 148.0700000  56.5320000  88.9860000 149.4920000
  61.0520000  70.0730000 138.8400000  61.4650000  69.3030000 139.2300000
  60.2750000  69.7310000 138.3970000  42.9860000  69.4600000 163.1410000
  43.0450000  68.7020000 162.5590000  43.5900000  70.1000000 162.7640000
  51.2050000  68.2440000 147.5940000  51.3880000  67.4080000 148.0210000
  52.0660000  68.6450000 147.4720000  54.7020000  82.0160000 144.1370000
  53.7900000  82.3040000 144.1110000  55.2110000  82.8220000 144.0440000
  43.0490000  62.5570000 136.1860000  42.1700000  62.5200000 136.5620000
  43.3640000  63.4360000 136.3980000  31.2280000  41.8070000 154.7820000
  31.0000000  40.9460000 155.1310000  31.3200000  42.3630000 155.5560000
  70.8180000  79.4930000 153.7580000  70.4210000  78.6290000 153.6460000
  70.0820000  80.1030000 153.7040000  38.8170000  75.7830000 123.8260000
  38.8830000  76.7260000 123.6750000  37.9480000  75.5490000 123.5000000
  52.9710000  35.9720000 143.0720000  53.6850000  35.4120000 142.7690000
  53.2810000  36.3270000 143.9050000  51.4270000  49.4750000 130.8790000
  51.3860000  49.4170000 129.9250000  51.1330000  50.3640000 131.0790000
  64.7610000  44.3410000 124.6370000  65.4330000  43.6620000 124.6950000
  63.9400000  43.8590000 124.5350000  31.0120000  80.6640000 159.0510000
  31.0310000  80.7100000 158.0950000  31.0000000  81.5780000 159.3350000
  50.7850000  75.7310000 152.1780000  51.2680000  76.3860000 151.6750000
  50.3900000  75.1630000 151.5150000  33.7210000  35.7970000 137.3550000
  33.9140000  36.7350000 137.3380000  34.5800000  35.3750000 137.3550000
  32.5390000  64.4130000 161.7280000  31.5940000  64.3080000 161.6150000
  32.8790000  63.5180000 161.7500000  35.8710000  47.8410000 145.0800000
  35.3560000  47.8200000 145.8860000  35.7760000  46.9630000 144.7110000
  64.9730000  35.1770000 147.4790000  64.4760000  34.3840000 147.6820000
  64.6610000  35.4410000 146.6130000  66.7640000  49.0120000 131.9850000
  67.2000000  48.2710000 131.5630000  65.9480000  48.6470000 132.3280000
  65.6020000  55.2190000 149.3420000  66.5570000  55.1610000 149.3020000
  65.3230000  54.3580000 149.6550000  60.2640000  32.5370000 141.4040000
  59.5650000  33.1830000 141.3070000  61.0680000  33.0560000 141.4340000
  83.2340000  40.4070000 156.8850000  83.7620000  39.8010000 157.4040000
  83.8700000  41.0130000 156.5050000  88.6910000  82.8520000 150.9630000
  89.0000000  82.3010000 151.6820000  88.9560000  82.3840000 150.1710000
  50.9610000  36.2720000 144.8350000  50.9760000  35.4140000 145.2570000
  50.8500000  36.8920000 145.5570000  49.2710000  80.2440000 130.6820000
  49.6910000  79.9080000 131.4740000  48.9630000  79.4610000 130.2240000
  88.5700000  76.0330000 135.9770000  88.5260000  75.4390000 135.2280000
  87.6580000  76.1450000 136.2480000  66.5580000  45.0300000 143.4050000
  66.0150000  45.7970000 143.5860000  65.9330000  44.3140000 143.2940000
  47.0460000  46.1940000 136.0500000  46.1650000  46.5340000 136.2020000
  46.9970000  45.2750000 136.3140000  60.2520000  82.0530000 136.4360000
  60.3420000  81.3440000 135.8000000  59.3170000  82.0760000 136.6400000
  53.3020000  85.3260000 131.3250000  52.4980000  84.8130000 131.3990000
  53.0030000  86.2310000 131.2380000  39.2760000  89.0000000 158.9150000
  38.9130000  88.1410000 158.6990000  40.2220000  88.8940000 158.8140000
  72.0170000  80.4280000 150.7120000  71.4240000  80.1210000 151.3970000
  72.2720000  79.6340000 150.2420000  66.2080000  46.7240000 159.8130000
  66.9710000  46.3410000 160.2460000  65.4840000  46.5670000 160.4190000
  33.4140000  54.1290000 144.0040000  33.3400000  54.0630000 144.9560000
  34.3050000  54.4450000 143.8540000  88.4540000  49.9010000 126.1220000
  89.0000000  50.2860000 125.4370000  89.0000000  49.2140000 126.5060000
  71.2530000  53.7090000 157.0600000  71.9710000  53.3140000 156.5650000
  71.0130000  54.4870000 156.5570000  86.4060000  38.7030000 148.9660000
  86.7380000  38.1880000 149.7010000  87.0900000  38.6360000 148.2990000
  55.8940000  65.7710000 134.8870000  55.8010000  64.9940000 134.3360000
  54.9980000  66.0810000 135.0180000  41.7030000  71.2860000 127.3470000
  42.1520000  71.0740000 126.5290000  42.2660000  71.9360000 127.7680000
  73.0490000  33.5010000 129.6250000  73.8870000  33.4520000 129.1640000
  72.4760000  32.9030000 129.1450000  86.0970000  60.3000000 163.6920000
  85.8630000  59.4230000 163.9970000  86.4360000  60.1640000 162.8070000
  88.1100000  74.4090000 132.4480000  89.0000000  74.7600000 132.4670000
  88.1340000  73.6630000 133.0470000  54.0310000  84.9980000 123.5050000
  53.8480000  85.8730000 123.8450000  53.2180000  84.5110000 123.6450000
  53.7430000  46.3600000 145.4610000  53.2890000  47.1510000 145.1700000
  54.4440000  46.6820000 146.0290000  70.5140000  69.5210000 138.0300000
  69.8460000  69.6420000 138.7040000  70.8560000  68.6400000 138.1870000
  45.7170000  35.1090000 123.5370000  45.4100000  34.6210000 124.3010000
  46.4160000  35.6700000 123.8750000  59.5940000  31.9430000 130.7660000
  59.5330000  31.0000000 130.6150000  60.4900000  32.0800000 131.0750000
  73.1780000  38.7320000 163.9810000  72.5810000  38.0340000 163.7110000
  74.0400000  38.3160000 164.0000000  68.4370000  83.3930000 123.5120000
  68.2730000  82.4530000 123.5870000  67.5650000  83.7890000 123.5000000
  61.0640000  52.5350000 156.7640000  61.2150000  53.2580000 156.1560000
  61.6070000  52.7440000 157.5250000  88.9670000  80.4410000 147.3720000
  88.9480000  81.1800000 147.9800000  89.0000000  80.8440000 146.5050000
  39.6000000  46.0050000 138.4970000  40.1380000  46.7610000 138.7330000
  40.2300000  45.3020000 138.3410000  71.2610000  62.8100000 159.0410000
  71.2760000  62.5200000 159.9530000  72.1660000  63.0580000 158.8530000
  41.6570000  57.9880000 139.1730000  42.5820000  57.9930000 139.4170000
  41.3060000  58.7970000 139.5450000  68.1240000  76.6610000 123.5000000
  68.7870000  77.2170000 123.9090000  67.3210000  77.1820000 123.5300000
  77.0530000  56.5240000 154.8560000  76.5000000  57.2140000 155.2200000
  77.9200000  56.6890000 155.2290000  46.4140000  58.9540000 135.5420000
  46.2060000  58.6690000 134.6520000  47.2440000  58.5210000 135.7450000
  79.8210000  64.0380000 128.1250000  80.7520000  63.8250000 128.0590000
  79.7900000  64.9940000 128.0860000  82.0980000  49.7790000 133.0580000
  82.4170000  50.3800000 132.3850000  82.3290000  48.9090000 132.7310000
  54.1060000  86.6750000 153.8910000  53.3860000  86.0470000 153.8310000
  53.9620000  87.2750000 153.1590000  61.8810000  45.5810000 140.5550000
  62.3800000  46.1960000 140.0170000  62.5320000  44.9530000 140.8690000
  51.7930000  65.3960000 142.8760000  52.3510000  66.1710000 142.9360000
  52.4060000  64.6610000 142.8410000  54.3750000  74.3750000 150.1130000
  54.4640000  73.4800000 150.4380000  54.6730000  74.3310000 149.2040000
  61.6350000  31.6810000 157.4880000  62.5640000  31.8930000 157.3930000
  61.4760000  31.0000000 156.8340000  83.0240000  36.2400000 145.9020000
  83.3470000  35.3400000 145.9280000  82.0750000  36.1570000 145.9990000
  37.0880000  32.9600000 158.4450000  36.8210000  32.2150000 157.9080000
  36.2850000  33.2360000 158.8880000  42.7830000  67.2350000 147.7770000
  42.3190000  67.9180000 147.2930000  43.6980000  67.5150000 147.7700000
  52.0610000  86.3580000 139.5880000  52.1660000  85.9840000 140.4630000
  52.8940000  86.7990000 139.4150000  70.7690000  68.4300000 154.6010000
  71.2860000  68.3610000 153.7980000  70.9380000  69.3180000 154.9180000
  75.8890000  31.5460000 157.5130000  75.1070000  31.0000000 157.5950000
  76.5990000  31.0000000 157.8530000  88.9550000  45.4670000 159.6410000
  89.0000000  45.9160000 158.7970000  88.9950000  44.5360000 159.4200000
  59.5570000  62.3780000 129.4600000  58.8490000  61.8390000 129.8130000
  60.1330000  62.5380000 130.2080000  31.1100000  83.8960000 152.3160000
  31.0000000  83.7860000 153.2600000  31.0100000  84.8370000 152.1710000
  64.4190000  71.7320000 143.7920000  63.6030000  71.5620000 143.3210000
  64.3410000  72.6400000 144.0860000  31.6350000  78.3060000 156.4040000
  31.0000000  78.2140000 155.6940000  31.1340000  78.1280000 157.2000000
  32.7270000  69.2810000 126.6460000  33.1170000  68.4810000 126.2940000
  33.4670000  69.7700000 127.0060000  76.5210000  43.7580000 145.6840000
  77.4470000  43.7800000 145.4440000  76.1490000  43.0630000 145.1390000
  54.9590000  65.3630000 140.9880000  54.0750000  65.7230000 141.0460000
  55.5180000  66.1240000 140.8260000  75.4700000  58.7050000 141.7740000
  76.3710000  58.4670000 141.9890000  75.5060000  59.6440000 141.5890000
  85.8210000  67.0620000 161.7220000  86.2500000  67.8280000 162.1030000
  86.3130000  66.3150000 162.0660000  78.2070000  52.5150000 131.9960000
  77.8930000  51.7220000 132.4310000  79.1080000  52.6170000 132.3040000
  69.6430000  63.2710000 162.8040000  68.9500000  63.9300000 162.8240000
  70.4560000  63.7770000 162.7950000  75.4080000  72.9700000 137.4310000
  76.1760000  72.4220000 137.5890000  75.5320000  73.7290000 138.0020000
  65.7660000  67.6130000 161.2910000  65.0470000  67.5310000 161.9170000
  65.4620000  68.2670000 160.6610000  63.5160000  84.1240000 146.1890000
  63.3820000  83.2230000 145.8930000  62.8500000  84.6310000 145.7250000
  58.8620000  39.6290000 138.6550000  58.1460000  39.4480000 139.2620000
  58.4780000  40.2050000 137.9940000  40.8070000  78.8660000 161.5660000
  41.7610000  78.8680000 161.6480000  40.5840000  77.9540000 161.3780000
  55.7800000  47.9510000 150.9820000  55.8620000  47.6680000 151.8930000
  56.2580000  47.2890000 150.4820000  87.8670000  71.2000000 132.0820000
  87.5880000  70.2840000 132.0780000  88.8240000  71.1580000 132.0860000
  73.7650000  81.7660000 152.5060000  72.9850000  81.4120000 152.9330000
  73.5160000  82.6540000 152.2490000  66.6780000  74.5800000 125.2630000
  67.1500000  74.3340000 124.4680000  66.8600000  75.5140000 125.3720000
  53.3020000  47.9030000 152.0010000  53.3630000  48.5530000 151.3010000
  52.4810000  47.4410000 151.8290000  62.5180000  65.3650000 145.7750000
  63.2640000  65.2410000 146.3620000  61.9640000  64.5990000 145.9250000
  48.2330000  48.3210000 132.2190000  48.8770000  47.8770000 132.7700000
  48.7330000  48.6190000 131.4580000  58.8790000  53.7500000 126.3270000
  58.0710000  53.5450000 125.8580000  58.5920000  53.9800000 127.2110000
  64.2940000  76.0480000 139.0210000  63.6110000  75.5040000 138.6290000
  64.0990000  76.9350000 138.7170000  61.8470000  49.9890000 134.1670000
  61.5070000  50.4410000 134.9390000  61.0770000  49.5800000 133.7700000
  69.3940000  66.0170000 156.5580000  69.6410000  66.5520000 155.8040000
  68.5200000  66.3260000 156.7960000  42.0590000  81.9430000 149.4590000
  42.3260000  82.8390000 149.2580000  41.4330000  81.7180000 148.7690000
  58.1740000  38.6830000 136.0310000  59.1200000  38.5390000 135.9950000
  57.8230000  37.8760000 136.4090000  48.9380000  86.5860000 126.4450000
  48.8840000  85.6350000 126.3490000  48.0260000  86.8780000 126.4620000
  64.1220000  59.6240000 138.5690000  64.4320000  59.5380000 137.6680000
  64.5500000  58.9080000 139.0390000  52.8500000  77.9530000 153.8430000
  52.9340000  78.8380000 153.4880000  52.5290000  78.0820000 154.7350000
  73.2380000  62.4510000 123.5110000  72.7660000  63.2820000 123.5490000
  74.1630000  62.7010000 123.5000000  88.9020000  46.3530000 138.4660000
  89.0000000  47.3020000 138.3960000  88.9710000  46.0370000 137.5650000
  35.9360000  88.9950000 157.6740000  36.5860000  88.9940000 158.3760000
  35.0940000  88.9270000 158.1260000  67.5870000  65.3830000 154.2020000
  67.1450000  64.5350000 154.2440000  67.0800000  65.9470000 154.7870000
  41.5340000  31.9520000 162.1410000  42.4230000  32.2920000 162.0430000
  41.6380000  31.0000000 162.1250000  83.9080000  50.9810000 158.5130000
  84.5120000  50.6640000 157.8420000  84.4730000  51.2500000 159.2370000
  41.9330000  70.0260000 153.5810000  41.3060000  69.5000000 153.0850000
  41.9130000  70.8850000 153.1580000  73.1830000  85.4610000 126.7660000
  72.6630000  85.3970000 125.9640000  72.6230000  85.9410000 127.3770000
  72.5880000  59.8150000 123.5230000  72.8420000  58.8930000 123.5000000
  72.4630000  60.0070000 124.4520000  69.3960000  31.9280000 140.4350000
  68.6420000  32.4270000 140.1220000  69.1660000  31.0140000 140.2630000
  68.7560000  83.8550000 133.7810000  68.2900000  83.9920000 134.6050000
  69.6810000  83.9360000 134.0120000  85.8430000  42.7480000 163.2500000
  85.3220000  42.4610000 164.0000000  85.1970000  42.9780000 162.5830000
  70.7280000  48.0390000 155.5190000  69.8350000  48.3130000 155.3080000
  70.7890000  48.1310000 156.4700000  41.6860000  70.4200000 132.1880000
  42.1750000  71.2310000 132.0500000  40.7670000  70.6900000 132.1860000
  86.4240000  34.2470000 131.0960000  86.6030000  33.4360000 131.5710000
  86.8220000  34.9320000 131.6340000  74.5180000  84.0680000 139.6310000
  74.1150000  84.9200000 139.7970000  75.4590000  84.2320000 139.6970000
  49.0780000  33.9910000 146.0460000  48.2480000  33.8080000 146.4860000
  49.1440000  33.3180000 145.3680000  80.4580000  73.5440000 163.0770000
  80.3010000  73.3480000 164.0000000  81.3420000  73.2170000 162.9090000
  51.1970000  71.4890000 160.0500000  51.5070000  70.7650000 159.5060000
  51.7890000  72.2130000 159.8450000  59.1310000  72.0250000 162.2890000
  59.5770000  71.1850000 162.1800000  58.4630000  72.0330000 161.6020000
  44.1890000  62.4690000 140.0460000  43.9400000  61.5830000 139.7850000
  44.8320000  62.7400000 139.3900000  71.4680000  53.7400000 137.5670000
  71.2920000  52.8170000 137.3870000  70.9060000  54.2150000 136.9530000
  75.4590000  68.2030000 150.5010000  75.3710000  68.4690000 149.5860000
  74.5820000  68.3160000 150.8700000  50.7130000  45.7740000 163.6670000
  49.8020000  45.6190000 163.4160000  50.8530000  46.7060000 163.4970000
  72.5470000  37.5840000 152.6830000  71.9200000  37.8320000 152.0050000
  72.7020000  38.3920000 153.1730000  43.7160000  31.0010000 124.4190000
  44.5440000  31.0000000 124.8990000  43.9710000  31.0990000 123.5010000
  78.7860000  31.0120000 163.8890000  79.3080000  31.8120000 163.9380000
  77.8820000  31.3080000 164.0000000  48.3780000  44.8000000 161.1150000
  47.4940000  45.1650000 161.1340000  48.9530000  45.5640000 161.0660000
  46.5830000  72.8820000 128.3790000  46.7980000  73.5280000 127.7070000
  46.9280000  73.2540000 129.1910000  59.0570000  78.1260000 130.0230000
  58.5420000  77.3200000 130.0550000  59.9540000  77.8450000 130.2030000
  84.8350000  46.5480000 131.9660000  85.0820000  46.2310000 132.8350000
  83.8940000  46.7130000 132.0290000  43.6650000  32.8210000 139.8540000
  44.0760000  32.7840000 138.9910000  44.3360000  32.4920000 140.4530000
  43.3670000  65.1830000 130.8380000  44.1900000  65.6520000 130.9760000
  42.7360000  65.8670000 130.6110000  39.2970000  53.1380000 145.2200000
  39.2970000  53.4390000 144.3120000  38.6140000  53.6570000 145.6450000
  56.6940000  52.5700000 128.5190000  56.0520000  52.0040000 128.9480000
  57.4950000  52.0460000 128.4910000  64.2880000  83.2910000 153.2680000
  64.0440000  82.3660000 153.2380000  63.5290000  83.7520000 152.9090000
  57.2250000  34.4620000 137.3810000  58.1140000  34.6770000 137.6650000
  56.7850000  35.3090000 137.3080000  40.1090000  43.7330000 148.6180000
  40.4180000  43.8030000 147.7150000  40.9070000  43.6240000 149.1370000
  49.8140000  78.0430000 128.2180000  50.1580000  77.5930000 128.9890000
  50.5760000  78.1620000 127.6500000  85.1770000  70.8830000 142.2020000
  84.2600000  70.7800000 141.9500000  85.6660000  70.7490000 141.3900000
  56.0120000  78.0040000 158.2130000  56.8720000  78.4230000 158.1890000
  55.4040000  78.6860000 157.9280000  57.5360000  62.5650000 123.5680000
  57.3700000  63.5050000 123.5000000  58.4890000  62.4870000 123.5280000
  36.9370000  32.9470000 129.2410000  36.1960000  33.2840000 129.7440000
  37.7090000  33.2140000 129.7410000  43.6610000  56.0030000 137.6760000
  44.2780000  55.3070000 137.9020000  42.7990000  55.6250000 137.8490000
  48.2140000  74.0630000 152.0670000  47.6160000  73.6550000 151.4410000
  48.8110000  73.3600000 152.3220000  55.4270000  73.3240000 141.6250000
  55.4490000  73.2210000 142.5760000  54.7420000  72.7220000 141.3340000
  42.2480000  75.4970000 157.3610000  42.6940000  74.8660000 156.7960000
  42.4530000  75.2100000 158.2510000  40.2150000  87.1900000 146.2680000
  39.9990000  86.4520000 145.6980000  39.4590000  87.7740000 146.2020000
  67.5800000  56.1060000 128.1530000  68.2550000  56.4260000 127.5550000
  67.6930000  55.1550000 128.1540000  85.1960000  85.3630000 151.8860000
  86.0520000  85.1070000 152.2300000  84.7320000  85.7240000 152.6410000
  40.6000000  81.1980000 123.5000000  39.6550000  81.3520000 123.5000000
  40.6880000  80.2440000 123.5000000  49.6270000  39.7380000 156.8910000
  49.2400000  40.4710000 156.4130000  49.1750000  39.7360000 157.7350000
  53.8160000  81.0030000 151.8950000  53.9880000  81.9010000 151.6120000
  52.8820000  80.9940000 152.1080000  37.0340000  42.3540000 123.5000000
  37.6360000  42.0670000 124.1870000  36.2650000  41.7940000 123.6060000
  38.2130000  63.0010000 151.2890000  37.8630000  62.5530000 150.5200000
  37.6820000  63.7950000 151.3670000  48.4200000  42.0700000 160.0470000
  48.5560000  41.2060000 159.6600000  49.1020000  42.1430000 160.7160000
  65.0200000  53.7650000 132.0900000  64.1430000  53.5660000 131.7620000
  65.0810000  54.7190000 132.0520000  76.7070000  82.5540000 158.4070000
  76.9340000  81.6340000 158.5430000  75.8440000  82.5300000 157.9930000
  32.7320000  82.9380000 163.0440000  33.4570000  82.4870000 162.6130000
  32.5790000  82.4360000 163.8450000  51.2390000  85.6110000 133.8940000
  50.8350000  85.7150000 133.0330000  51.7190000  86.4280000 134.0340000
  70.4270000  41.2380000 150.8010000  70.8710000  40.5160000 151.2450000
  69.9750000  40.8260000 150.0640000  64.0880000  74.9370000 125.6570000
  64.1720000  75.8570000 125.9090000  63.1550000  74.7460000 125.7540000
  61.8220000  68.6480000 141.9070000  60.8930000  68.8680000 141.9760000
  61.8500000  67.9200000 141.2850000  44.4830000  36.1550000 143.2820000
  43.9120000  36.3390000 142.5350000  44.8660000  37.0040000 143.5060000
  31.5820000  81.6920000 139.3340000  31.0000000  80.9550000 139.5180000
  31.0000000  82.4510000 139.2880000  33.8640000  79.8100000 150.0620000
  33.1490000  80.4390000 149.9740000  33.7000000  79.1640000 149.3740000
  78.2600000  41.1210000 123.5050000  78.9860000  41.7440000 123.5070000
  78.6810000  40.2610000 123.5000000  80.7360000  34.9230000 158.4080000
  81.5310000  34.4050000 158.2870000  80.2890000  34.8800000 157.5630000
  41.3310000  79.2370000 141.1900000  41.8150000  78.4170000 141.2820000
  40.4180000  78.9970000 141.3550000  89.0000000  86.5670000 161.3800000
  88.7020000  86.4610000 160.4760000  88.3150000  86.1580000 161.9080000
  35.2840000  60.9560000 138.9010000  34.7290000  61.2760000 139.6120000
  36.1280000  61.3850000 139.0440000  64.6250000  78.5790000 124.2000000
  65.2880000  78.6360000 123.5130000  65.0030000  77.9830000 124.8480000
  81.0350000  67.8580000 139.4220000  80.5970000  67.8590000 140.2730000
  80.8470000  66.9930000 139.0570000  70.6230000  68.7060000 149.7000000
  71.5260000  68.9140000 149.9360000  70.4170000  69.3070000 148.9840000
  86.7840000  59.2370000 154.2530000  86.7530000  58.2810000 154.2470000
  86.2200000  59.5000000 153.5250000  61.9940000  86.4450000 153.3030000
  62.4270000  86.5060000 152.4520000  61.6950000  85.5370000 153.3560000
  88.9930000  85.5220000 157.9660000  88.9570000  86.4370000 157.6870000
  89.0000000  85.0220000 157.1490000  58.3980000  78.9930000 143.6920000
  57.6980000  79.6400000 143.6040000  58.2420000  78.5830000 144.5430000
  62.7000000  31.5890000 132.5360000  62.7710000  31.0000000 131.7850000
  62.9480000  31.0500000 133.2880000  87.3230000  47.1720000 135.3760000
  87.1540000  48.1110000 135.3080000  86.4700000  46.7630000 135.2240000
  61.9520000  43.8610000 128.0520000  61.8250000  43.2650000 127.3140000
  62.4640000  43.3550000 128.6840000  50.9340000  45.1580000 125.4560000
  51.5850000  45.8490000 125.3400000  51.4480000  44.3550000 125.5420000
  60.1960000  83.7720000 130.0030000  59.5580000  84.4050000 129.6750000
  60.8810000  84.3070000 130.4030000  66.2550000  35.2100000 150.5610000
  66.0040000  34.8140000 149.7270000  66.0990000  36.1470000 150.4380000
  81.6480000  54.9620000 126.3880000  80.8410000  55.4640000 126.2730000
  82.3160000  55.6220000 126.5750000  54.5240000  66.9800000 149.6490000
  54.0690000  66.3300000 150.1830000  53.8400000  67.5970000 149.3870000
  65.3740000  31.9290000 147.6090000  65.7840000  32.3630000 148.3570000
  65.3740000  31.0000000 147.8420000  72.3420000  88.0520000 156.4970000
  71.6390000  87.7560000 155.9180000  72.3760000  89.0000000 156.3680000
  43.1270000  49.1850000 158.6720000  43.4080000  48.5290000 159.3100000
  42.9870000  49.9780000 159.1890000  87.1230000  84.0750000 129.9670000
  87.7270000  83.8340000 130.6690000  86.2520000  83.9440000 130.3420000
  67.3590000  76.7420000 136.5980000  68.2700000  76.6420000 136.8760000
  66.8460000  76.5580000 137.3850000  31.0000000  63.7890000 136.2340000
  31.2490000  64.6500000 136.5670000  31.8090000  63.4300000 135.8670000
  45.9340000  79.6160000 130.3930000  46.5090000  79.0860000 129.8400000
  46.4490000  80.3980000 130.5940000  80.8320000  77.3390000 123.7700000
  80.2950000  76.9830000 124.4770000  81.7300000  77.2760000 124.0970000
  81.1490000  75.3710000 143.8830000  81.4100000  76.2910000 143.9330000
  80.2220000  75.3710000 144.1240000  49.7060000  56.6460000 145.1990000
  50.1430000  56.4370000 144.3730000  50.3080000  57.2420000 145.6450000
  69.4130000  77.7590000 134.5890000  69.6480000  78.6870000 134.5720000
  68.4560000  77.7540000 134.5920000  49.6690000  78.3380000 153.9220000
  49.8770000  78.2640000 154.8530000  50.3780000  77.8700000 153.4790000
  31.0880000  37.7690000 157.2960000  31.0000000  36.8450000 157.0650000
  31.5540000  38.1590000 156.5550000  55.9250000  68.0960000 157.0670000
  55.2710000  68.4810000 157.6500000  56.5890000  67.7360000 157.6560000
  77.8860000  66.6850000 123.5000000  78.7920000  66.3800000 123.5390000
  77.3620000  65.8840000 123.5330000  55.0990000  31.0500000 159.0250000
  54.9820000  31.0000000 158.0760000  54.2080000  31.0490000 159.3770000
  82.8180000  86.1640000 138.9160000  82.0390000  85.6160000 138.8270000
  83.2960000  85.7820000 139.6530000  57.4390000  85.9720000 128.8960000
  57.9640000  86.4670000 128.2670000  57.6380000  86.3710000 129.7430000
  35.7930000  56.1290000 145.2320000  35.9890000  57.0520000 145.3930000
  35.4190000  55.8170000 146.0570000  64.8310000  36.9280000 140.7510000
  64.3080000  37.6100000 140.3320000  64.6820000  37.0520000 141.6890000
  53.6780000  31.0000000 139.9570000  54.4320000  31.3580000 139.4890000
  53.8640000  31.1720000 140.8800000  86.2420000  55.7610000 155.8770000
  85.3070000  55.8530000 155.6940000  86.3310000  56.0090000 156.7980000
  78.8050000  35.0480000 133.9170000  79.0250000  34.4870000 134.6600000
  77.9240000  35.3690000 134.1110000  52.6900000  64.1940000 134.8650000
  51.9790000  63.6150000 134.5910000  53.3680000  64.0740000 134.2000000
  81.7610000  42.5530000 156.6240000  81.2160000  41.8850000 157.0380000
  81.2770000  42.8030000 155.8360000  43.3510000  82.2430000 131.4330000
  43.6160000  81.7980000 130.6280000  43.7030000  81.6970000 132.1360000
  71.4950000  73.5190000 127.4180000  71.3730000  73.1020000 126.5650000
  72.0950000  72.9370000 127.8850000  77.8960000  39.4090000 163.9600000
  76.9460000  39.2970000 163.9660000  78.0250000  40.3570000 164.0000000
  49.1810000  74.4490000 149.1500000  49.4970000  75.3520000 149.1250000
  49.9760000  73.9170000 149.1430000  85.5650000  40.4200000 137.6910000
  86.1150000  40.9880000 137.1530000  86.0710000  39.6120000 137.7810000
  47.8680000  51.8770000 146.7100000  47.3290000  51.7960000 147.4960000
  48.1840000  52.7800000 146.7260000  55.6870000  47.0100000 142.1390000
  55.5520000  47.9560000 142.2040000  56.0440000  46.7600000 142.9920000
  57.4630000  41.4130000 163.3240000  57.7240000  42.3020000 163.5620000
  57.8540000  40.8590000 164.0000000  39.6670000  54.6580000 152.6690000
  40.0870000  53.8280000 152.8950000  38.7690000  54.5680000 152.9900000
  34.5750000  67.7010000 134.2420000  34.3960000  66.7910000 134.0050000
  35.5250000  67.7860000 134.1680000  38.4510000  73.2890000 139.9340000
  37.7270000  73.6260000 139.4070000  38.3910000  72.3380000 139.8440000
  59.2110000  77.4070000 147.0760000  59.8240000  76.7630000 146.7210000
  59.3700000  77.3940000 148.0200000  78.8060000  88.8680000 140.8240000
  78.3510000  89.0000000 141.6560000  78.7010000  87.9340000 140.6380000
  31.0000000  38.4900000 162.1370000  31.1400000  38.6090000 161.1980000
  31.8640000  38.2620000 162.4820000  45.2470000  74.0710000 155.7750000
  45.1590000  74.8070000 156.3820000  45.5080000  73.3340000 156.3280000
  39.1880000  79.7930000 153.9480000  40.1010000  80.0210000 153.7730000
  39.2370000  79.0070000 154.4920000  82.0180000  67.1450000 155.1430000
  81.9920000  67.8960000 155.7360000  82.3820000  67.4940000 154.3290000
  37.1660000  89.0000000 138.0160000  38.0900000  88.7650000 137.9430000
  36.9720000  88.9270000 138.9510000  36.9620000  35.8260000 143.4970000
  36.0240000  35.7130000 143.6530000  37.2870000  34.9390000 143.3390000
  82.1330000  36.6970000 156.6660000  81.4830000  36.5210000 155.9860000
  82.4190000  37.5950000 156.4970000  59.0070000  79.9270000 147.4960000
  58.8520000  80.0110000 146.5550000  58.1700000  79.6240000 147.8500000
  86.3970000  38.9910000 126.2660000  85.6740000  39.4040000 126.7370000
  86.3280000  38.0610000 126.4850000  37.2260000  71.7400000 125.9690000
  37.7040000  71.7780000 125.1400000  37.7130000  72.3230000 126.5530000
  39.2720000  62.5830000 143.2750000  39.2880000  63.5280000 143.4220000
  40.1070000  62.3920000 142.8460000  33.9450000  39.7200000 161.4730000
  34.7180000  40.2840000 161.4540000  33.2040000  40.3260000 161.4470000
  48.4070000  51.6500000 130.8010000  48.7310000  50.8650000 130.3610000
  49.1810000  52.0240000 131.2240000  60.0030000  36.4980000 149.6580000
  59.2930000  35.8710000 149.5200000  60.7810000  35.9560000 149.7870000
  32.2730000  67.4350000 132.8520000  32.5050000  68.2810000 132.4710000
  31.8720000  67.6530000 133.6940000  46.5180000  33.2440000 156.5080000
  47.1040000  33.8660000 156.9370000  45.7250000  33.2520000 157.0450000
  58.4370000  37.4290000 158.8110000  58.0530000  36.6370000 159.1860000
  58.8440000  37.1370000 157.9960000  62.2180000  63.5470000 123.5000000
  62.6630000  63.6330000 124.3430000  61.5170000  64.1990000 123.5310000
  54.0760000  69.1200000 142.0080000  53.2570000  69.5370000 141.7410000
  53.8860000  68.1810000 141.9840000  39.8780000  86.2750000 156.9750000
  40.7370000  86.6960000 156.9670000  39.7790000  85.9470000 157.8690000
  77.2750000  74.3320000 146.1940000  78.0190000  74.0510000 145.6630000
  77.6550000  74.5420000 147.0480000  78.1900000  79.5270000 160.3270000
  78.7110000  80.1920000 159.8780000  77.5330000  80.0250000 160.8150000
  88.3730000  38.9550000 139.7650000  88.5900000  39.8660000 139.9620000
  87.4420000  38.8790000 139.9770000  77.4350000  67.4630000 143.9940000
  77.4670000  66.5160000 144.1270000  76.6270000  67.7390000 144.4270000
  47.1430000  68.9360000 126.2540000  48.0070000  68.8260000 125.8580000
  46.8590000  69.8070000 125.9730000  80.3840000  31.9070000 125.5840000
  80.2170000  31.0000000 125.8390000  79.6940000  32.1110000 124.9520000
  82.0720000  63.3700000 151.5740000  81.3330000  62.7740000 151.4500000
  81.7460000  64.0310000 152.1850000  67.2380000  72.4970000 156.6900000
  66.5420000  72.2070000 157.2790000  66.8960000  73.2980000 156.2910000
  59.3840000  76.7280000 158.3860000  60.2420000  77.1060000 158.5790000
  58.8050000  77.0950000 159.0540000  69.5510000  63.6500000 151.9030000
  68.7650000  64.1850000 151.7940000  69.2350000  62.7470000 151.8620000
  76.5810000  85.5210000 132.0880000  75.6710000  85.4930000 132.3830000
  76.8870000  86.3930000 132.3360000  74.1500000  76.5390000 157.9170000
  74.7630000  77.2540000 157.7440000  74.3170000  75.9060000 157.2170000
  38.8130000  42.3280000 159.2950000  39.6480000  41.8620000 159.2610000
  38.1540000  41.6500000 159.1390000  45.7540000  88.9450000 125.5460000
  45.3000000  89.0000000 126.3860000  45.9550000  88.0150000 125.4410000
  41.6020000  33.5700000 141.3620000  41.6790000  34.4380000 141.7570000
  41.2570000  33.7340000 140.4840000  56.4870000  79.0760000 126.2280000
  56.4090000  78.3950000 125.5610000  55.8340000  79.7310000 125.9800000
  50.4600000  88.0840000 160.1590000  50.2460000  89.0000000 159.9830000
  50.6590000  88.0600000 161.0960000  53.9030000  65.1310000 161.9570000
  53.8520000  64.1780000 161.8920000  53.8500000  65.4370000 161.0510000
  58.2050000  31.0000000 161.7100000  59.0060000  31.5200000 161.6480000
  57.5110000  31.5940000 161.4220000  51.3240000  83.6950000 126.2270000
  51.1600000  84.1720000 127.0400000  52.0810000  84.1340000 125.8390000
  66.8340000  41.2210000 129.8560000  66.4610000  41.6450000 130.6290000
  66.0870000  41.0870000 129.2720000  49.2150000  49.7490000 155.5570000
  49.9810000  49.1760000 155.5790000  48.4740000  49.1660000 155.7250000
  50.7920000  49.5540000 136.7840000  50.9200000  48.6100000 136.6980000
  51.1380000  49.9180000 135.9680000  37.3090000  65.9500000 153.7600000
  38.1270000  66.0200000 154.2530000  36.6610000  66.3970000 154.3050000
  73.7930000  59.8440000 163.9160000  74.3130000  59.0440000 163.8430000
  72.8850000  59.5400000 163.9270000  62.5460000  46.7210000 148.7900000
  62.0340000  47.5020000 148.9980000  63.4440000  47.0390000 148.6990000
  31.9500000  73.2850000 137.5320000  31.0000000  73.4030000 137.5280000
  32.3020000  74.1750000 137.5560000  59.5770000  42.5080000 158.6730000
  60.0270000  43.3420000 158.5430000  60.1160000  42.0420000 159.3130000
  58.0740000  33.8790000 154.5430000  57.7150000  33.3600000 153.8230000
  57.5920000  34.7060000 154.5060000  52.2910000  56.9850000 133.7810000
  52.9720000  56.3130000 133.7970000  51.4690000  56.4950000 133.7530000
  39.6930000  52.6380000 161.6860000  40.2060000  53.2190000 162.2480000
  40.0140000  51.7600000 161.8910000  88.6150000  79.6420000 129.1110000
  88.9990000  79.3840000 129.9490000  89.0000000  80.4990000 128.9250000
  38.2390000  77.2380000 148.3650000  38.5760000  78.0590000 148.0060000
  38.8610000  77.0050000 149.0550000  80.8350000  54.7800000 132.0370000
  80.8980000  55.6670000 131.6850000  81.7390000  54.4640000 132.0560000
  80.2940000  63.6000000 130.5930000  81.1050000  63.0930000 130.6000000
  79.6140000  62.9620000 130.3740000  77.1130000  45.9690000 155.3450000
  76.7920000  46.8680000 155.2690000  78.0590000  46.0610000 155.4610000
  86.3130000  58.4980000 137.2470000  87.2310000  58.5120000 137.5160000
  85.8420000  58.1800000 138.0180000  31.0000000  71.9030000 127.5050000
  31.0050000  71.0350000 127.1010000  31.2510000  71.7450000 128.4150000
  46.4320000  83.6110000 130.7060000  45.5320000  83.3750000 130.9280000
  46.9430000  82.8280000 130.9100000  58.5210000  66.9460000 155.7430000
  57.7250000  66.6520000 155.3010000  59.0830000  67.2680000 155.0370000
  35.5330000  33.2490000 141.4080000  36.3860000  32.8200000 141.3490000
  35.7390000  34.1760000 141.5300000  52.0050000  68.1880000 139.6280000
  52.0800000  67.5800000 140.3630000  52.4210000  67.7320000 138.8960000
  44.3100000  85.1180000 137.2250000  44.4290000  84.3210000 137.7410000
  43.7380000  84.8540000 136.5040000  56.4270000  68.4610000 143.2510000
  56.3430000  68.0050000 142.4140000  55.6690000  68.1710000 143.7600000
  42.8600000  54.2830000 163.9920000  43.1400000  55.1980000 163.9910000
  41.9030000  54.3240000 164.0000000  61.7440000  59.5560000 162.1280000
  61.1770000  60.3130000 161.9800000  61.1400000  58.8210000 162.2380000
  84.9310000  48.3600000 155.1050000  85.2800000  48.4050000 155.9950000
  85.2330000  47.5150000 154.7710000  52.0570000  73.4160000 129.2070000
  52.4460000  74.0960000 128.6570000  52.6600000  73.3320000 129.9470000
  58.8840000  42.1690000 125.4480000  59.5930000  42.8120000 125.4520000
  58.0830000  42.6940000 125.4480000  74.8310000  45.4440000 149.7000000
  75.6990000  45.0840000 149.8830000  74.6850000  45.2580000 148.7720000
  39.2680000  83.5220000 146.0800000  39.3730000  82.8170000 146.7190000
  40.1630000  83.7880000 145.8680000  80.7290000  43.0450000 135.2410000
  81.3880000  43.4750000 134.6960000  81.2350000  42.4960000 135.8410000
  56.6160000  40.7150000 154.5050000  57.2930000  41.3890000 154.5590000
  57.0930000  39.9120000 154.2930000  45.1520000  72.1810000 136.7140000
  44.8500000  71.7620000 135.9080000  45.2930000  71.4550000 137.3230000
  46.2160000  57.3460000 138.7950000  45.3160000  57.6580000 138.8860000
  46.4030000  57.4230000 137.8590000  52.4670000  53.3490000 154.2080000
  52.3670000  53.3060000 153.2570000  51.9560000  54.1160000 154.4680000
  47.1810000  48.5280000 161.2130000  47.6760000  47.7090000 161.2120000
  46.9950000  48.6960000 160.2890000  38.4220000  66.3440000 142.2440000
  38.1480000  66.4290000 141.3310000  39.1670000  65.7430000 142.2150000
  39.3490000  78.7000000 131.5740000  40.2920000  78.5370000 131.5900000
  39.1770000  79.1920000 132.3770000  39.8840000  70.9560000 161.6050000
  40.8280000  71.0820000 161.5120000  39.5030000  71.7980000 161.3540000
  81.2920000  64.1080000 142.5990000  81.4420000  64.6010000 143.4040000
  80.5840000  64.5780000 142.1580000  52.4920000  71.6120000 133.8620000
  51.7590000  72.0450000 134.3000000  52.0810000  70.9570000 133.2960000
  88.9490000  63.8920000 148.7750000  88.6560000  63.9240000 147.8650000
  88.1470000  63.7510000 149.2800000  68.6910000  88.4100000 151.2380000
  68.2400000  88.9930000 150.6270000  69.6210000  88.5770000 151.0870000
  68.3340000  52.1180000 127.6650000  68.5600000  51.8970000 128.5680000
  67.5250000  52.6260000 127.7380000  66.6000000  48.8540000 148.7340000
  66.1320000  48.0260000 148.6290000  65.9600000  49.5250000 148.4950000
  48.4490000  36.7450000 157.8510000  47.8520000  36.0280000 158.0640000
  48.0400000  37.1850000 157.1050000  78.1940000  46.1990000 143.3760000
  77.6590000  46.0060000 144.1450000  79.0260000  45.7570000 143.5450000
  82.7750000  61.0990000 157.4420000  83.0630000  60.3790000 156.8810000
  83.5650000  61.6170000 157.5920000  63.9450000  31.9180000 126.1740000
  64.6520000  32.4080000 125.7550000  64.1520000  31.0000000 125.9980000
  63.1950000  50.3790000 132.0690000  63.9120000  50.9890000 131.8940000
  63.6280000  49.5780000 132.3620000  46.9180000  80.4310000 157.5330000
  47.0210000  80.5070000 158.4810000  46.8150000  81.3330000 157.2300000
  83.3340000  73.4070000 126.2970000  84.1770000  73.5260000 125.8590000
  82.9950000  74.2960000 126.4090000  84.9460000  80.0900000 144.1370000
  84.7100000  79.9130000 143.2270000  84.1140000  80.2890000 144.5660000
  77.1000000  40.3290000 134.0350000  77.0380000  39.4960000 133.5680000
  76.2000000  40.6550000 134.0630000  50.7350000  80.2920000 150.7600000
  50.2180000  80.9220000 151.2610000  50.8060000  79.5290000 151.3350000
  78.2710000  52.6810000 154.0590000  78.5190000  53.5940000 153.9090000
  77.3240000  52.7100000 154.1940000  78.7440000  83.8240000 139.8960000
  79.5070000  84.0970000 139.3860000  78.8960000  84.1900000 140.7680000
  40.8650000  42.6070000 156.1320000  40.2990000  43.0250000 156.7810000
  40.3050000  42.4920000 155.3640000  85.7450000  79.8700000 163.9940000
  86.3960000  79.1680000 164.0000000  86.2620000  80.6760000 163.9860000
  32.9120000  43.3980000 150.3110000  32.8800000  42.5040000 150.6490000
  33.8360000  43.6440000 150.3710000  83.3630000  80.2280000 158.1270000
  82.6150000  80.8200000 158.0470000  82.9880000  79.3530000 158.0230000
  60.8590000  64.5650000 163.9990000  61.2490000  64.2600000 163.1800000
  60.9700000  65.5150000 163.9780000  85.6540000  40.5140000 124.4280000
  84.8590000  39.9820000 124.4450000  85.8850000  40.5700000 123.5000000
  88.4140000  85.5190000 140.1030000  88.9960000  84.9910000 139.5570000
  89.0000000  86.1080000 140.5790000  71.1050000  56.2290000 151.2320000
  71.0890000  57.1100000 150.8600000  71.9910000  56.1300000 151.5800000
  81.4730000  36.8130000 152.6350000  81.6250000  35.8690000 152.6780000
  82.0060000  37.1740000 153.3440000  61.1720000  76.7210000 125.1390000
  61.5340000  77.0940000 125.9430000  61.7500000  77.0390000 124.4460000
  67.9950000  86.6800000 154.0050000  67.9710000  86.4510000 153.0770000
  68.0570000  85.8390000 154.4590000  33.2000000  74.6400000 129.4230000
  33.5840000  75.5010000 129.2600000  33.3760000  74.1440000 128.6230000
  59.6440000  44.8180000 127.9630000  59.6160000  45.0680000 128.8860000
  60.0970000  45.5430000 127.5310000  63.8600000  78.5050000 130.1940000
  63.1190000  79.0730000 129.9840000  63.7940000  77.7820000 129.5700000
  40.1750000  36.4210000 153.1560000  40.3350000  37.1270000 153.7820000
  39.4350000  35.9370000 153.5230000  86.3750000  83.7500000 140.0470000
  86.5510000  82.8880000 139.6690000  85.5120000  83.9880000 139.7090000
  37.9720000  84.4930000 134.2400000  37.0360000  84.3400000 134.1180000
  38.3610000  83.6180000 134.2280000  38.8210000  37.4640000 134.8350000
  38.5020000  37.4080000 133.9350000  39.4530000  36.7480000 134.9110000
  38.8850000  56.8160000 145.9420000  38.3080000  56.1380000 145.5910000
  38.3750000  57.6230000 145.8760000  88.4900000  36.4620000 149.2420000
  88.9920000  37.0360000 148.6640000  89.0000000  36.4310000 150.0510000
  32.8250000  55.1990000 135.0260000  32.1060000  55.5570000 134.5060000
  33.1000000  55.9240000 135.5870000  33.7200000  53.4880000 154.2370000
  33.3260000  52.9750000 153.5320000  34.2280000  52.8520000 154.7410000
  76.0310000  47.5730000 150.5100000  76.9080000  47.2170000 150.3740000
  75.7160000  47.7810000 149.6300000  44.3410000  58.1090000 133.0670000
  44.0800000  58.4570000 132.2150000  43.5940000  57.5800000 133.3490000
  34.5220000  88.8720000 140.7220000  35.4480000  89.0000000 140.9300000
  34.4720000  87.9730000 140.3950000  49.2850000  80.8480000 139.3580000
  49.5260000  80.2840000 138.6240000  49.8120000  81.6380000 139.2370000
  67.7520000  74.6480000 130.0520000  68.2640000  75.4110000 129.7830000
  67.7380000  74.6940000 131.0090000  62.9240000  56.8430000 127.0880000
  63.7970000  56.8590000 127.4800000  62.6870000  57.7660000 126.9930000
  53.9000000  48.7510000 147.9020000  54.3770000  48.9250000 148.7140000
  54.2910000  49.3460000 147.2620000  83.8760000  52.2360000 143.5070000
  84.0830000  53.0860000 143.1190000  84.4280000  52.1880000 144.2890000
  85.2480000  74.6950000 142.4170000  85.0760000  74.0450000 141.7360000
  85.5680000  75.4620000 141.9410000  83.0250000  74.0350000 136.1180000
  82.8690000  73.4350000 136.8470000  83.3120000  74.8480000 136.5340000
  50.0330000  85.8940000 124.0060000  49.4310000  86.4390000 123.5000000
  50.8580000  85.9330000 123.5210000  70.2340000  49.3580000 132.9400000
  69.3180000  49.1150000 132.8060000  70.4130000  50.0040000 132.2560000
  39.1580000  69.2280000 142.3370000  39.1460000  68.7130000 141.5300000
  38.3430000  69.7300000 142.3130000  58.7180000  63.7070000 138.1240000
  59.4470000  63.7120000 137.5050000  58.8410000  64.5000000 138.6460000
  75.5990000  76.2360000 144.5350000  76.2090000  75.5760000 144.2070000
  74.8070000  75.7440000 144.7530000  34.6660000  71.1660000 135.7270000
  33.9510000  70.8800000 135.1600000  34.2960000  71.8900000 136.2340000
  31.4030000  83.9320000 126.5570000  31.0000000  83.8270000 125.6950000
  31.0010000  84.7240000 126.9150000  64.3360000  85.7610000 127.0710000
  63.3800000  85.7500000 127.1080000  64.5910000  84.8450000 127.1880000
  86.4640000  87.3270000 138.3730000  86.2730000  88.2480000 138.5500000
  85.6040000  86.9110000 138.3120000  44.8600000  32.6270000 154.2240000
  45.0880000  31.7720000 154.5880000  44.1650000  32.9540000 154.7950000
  88.9870000  65.0440000 139.8710000  88.9950000  65.6410000 139.1230000
  88.1500000  64.5840000 139.8020000  84.6050000  48.5030000 126.4910000
  84.0730000  47.7200000 126.6300000  85.4420000  48.1690000 126.1670000
  67.5270000  79.8470000 148.7890000  66.6900000  80.0400000 148.3680000
  67.4430000  78.9410000 149.0870000  82.6020000  48.8050000 157.7490000
  82.8940000  49.0280000 156.8650000  81.9740000  49.4910000 157.9750000
  87.3010000  88.9280000 127.4960000  86.8150000  89.0000000 126.6740000
  86.6330000  89.0000000 128.1770000  36.4830000  86.6700000 156.8250000
  37.3980000  86.9490000 156.8700000  36.5250000  85.7140000 156.7920000
  84.3750000  86.1680000 156.4840000  83.6350000  85.7070000 156.8790000
  84.4410000  86.9850000 156.9790000  76.2560000  66.8820000 146.9190000
  77.0850000  66.5230000 146.6060000  76.4010000  67.8280000 146.9510000
  55.2730000  65.7910000 123.5300000  54.6680000  66.5320000 123.5000000
  56.1390000  66.1920000 123.6180000  46.5120000  66.9570000 135.4190000
  46.3140000  66.0290000 135.5430000  47.4390000  66.9750000 135.1800000
  47.2290000  59.5770000 153.9670000  48.1630000  59.3770000 153.9100000
  47.1940000  60.5230000 154.1120000  50.1170000  44.9960000 153.5110000
  49.3950000  44.9990000 154.1390000  50.5720000  44.1680000 153.6710000
  88.7790000  82.6080000 127.5770000  88.9990000  83.3170000 126.9740000
  88.9990000  82.9520000 128.4430000  62.8390000  33.4730000 160.3070000
  62.4490000  33.9900000 161.0130000  63.3420000  34.1070000 159.7960000
  71.3840000  89.0000000 130.1530000  70.8480000  88.9720000 130.9450000
  71.5940000  88.0830000 129.9730000  55.9630000  69.6510000 128.8880000
  55.3700000  70.3500000 129.1620000  55.3840000  68.9360000 128.6210000
  40.2780000  71.1150000 129.6170000  39.4720000  71.6180000 129.7330000
  40.9730000  71.7040000 129.9100000  79.4600000  83.9040000 135.5590000
  79.3980000  84.5350000 134.8410000  80.2190000  84.1930000 136.0670000
  51.0900000  52.9350000 157.4290000  51.4580000  53.4140000 158.1710000
  50.8360000  53.6160000 156.8050000  34.1700000  67.2320000 124.4020000
  33.8090000  66.4940000 124.8930000  33.8850000  67.0830000 123.5000000
  64.0450000  39.3480000 134.8660000  64.1030000  38.3960000 134.9460000
  64.2210000  39.5230000 133.9410000  69.8940000  82.5630000 150.0390000
  70.1490000  82.2110000 150.8920000  68.9860000  82.2820000 149.9250000
  48.9020000  83.7020000 138.1600000  49.1350000  83.2020000 137.3780000
  48.0410000  83.3680000 138.4110000  33.1370000  56.4480000 128.9180000
  33.4780000  56.1510000 129.7620000  32.5710000  57.1890000 129.1350000
  60.3350000  66.9550000 148.0100000  59.6590000  67.6330000 148.0390000
  59.8470000  66.1340000 147.9360000  68.1570000  31.0100000 135.7540000
  68.2250000  31.0660000 134.8020000  69.0650000  31.0000000 136.0590000
  32.9500000  65.8650000 138.9200000  32.1590000  66.0620000 138.4190000
  33.5370000  66.6010000 138.7410000  52.8750000  81.0190000 149.2590000
  53.0790000  81.7020000 148.6200000  53.1710000  80.2080000 148.8450000
  48.3040000  83.7380000 154.1690000  48.9050000  83.9860000 153.4670000
  47.6450000  83.1920000 153.7400000  84.8800000  65.3950000 139.8950000
  85.8220000  65.4860000 140.0330000  84.5770000  66.2860000 139.7150000
  79.0390000  67.4730000 130.6330000  78.9970000  66.5600000 130.3510000
  78.2110000  67.6210000 131.0920000  36.9850000  39.7870000 129.8060000
  37.5630000  40.5110000 130.0460000  37.2020000  39.5990000 128.8920000
  73.5740000  82.8570000 163.7270000  72.6750000  82.6750000 164.0000000
  73.5000000  83.0990000 162.8030000  47.6100000  67.0530000 157.8290000
  48.0210000  66.1890000 157.8210000  47.6140000  67.3120000 158.7510000
  81.2100000  53.4820000 152.0430000  81.1600000  52.9610000 151.2420000
  80.3220000  53.8190000 152.1660000  59.8200000  38.0350000 144.7880000
  58.9050000  38.2460000 144.6010000  60.1490000  37.6520000 143.9750000
  82.9180000  57.6380000 155.8520000  83.8440000  57.8690000 155.9130000
  82.9170000  56.7180000 155.5850000  64.2010000  67.1040000 141.5860000
  65.0110000  67.5430000 141.3250000  64.4560000  66.1910000 141.7210000
  82.0370000  86.3430000 163.4710000  81.2400000  86.3200000 164.0000000
  82.6880000  85.8790000 163.9990000  34.0810000  84.7110000 157.0680000
  33.8770000  85.4720000 156.5250000  34.5180000  84.1010000 156.4730000
  82.9790000  38.5800000 161.7110000  82.0300000  38.7070000 161.7280000
  83.0940000  37.6300000 161.7470000  87.4910000  65.0510000 125.9530000
  87.2510000  65.9780000 125.9460000  88.4450000  65.0510000 125.8740000
  57.5250000  71.5940000 145.0470000  57.3520000  72.5170000 145.2310000
  57.3560000  71.5010000 144.1090000  40.4210000  59.2970000 156.4620000
  40.4460000  58.3410000 156.4950000  40.8990000  59.5770000 157.2430000
  82.0470000  75.2320000 141.1990000  82.9990000  75.3240000 141.1850000
  81.7250000  76.1000000 141.4450000  36.7310000  78.4480000 158.7280000
  37.0630000  77.5590000 158.8490000  36.9600000  78.6700000 157.8250000
  42.0890000  88.4210000 161.6260000  42.7430000  89.0000000 162.0180000
  41.5490000  89.0000000 161.0870000  74.6210000  42.6170000 148.3200000
  75.0330000  42.7830000 149.1680000  75.3550000  42.5280000 147.7100000
  39.9460000  75.7550000 153.8220000  40.1550000  75.1030000 154.4910000
  39.0210000  75.9570000 153.9640000  36.1320000  58.2110000 137.6830000
  36.9330000  57.6920000 137.7550000  36.4380000  59.1060000 137.5390000
  57.4330000  58.9970000 151.5410000  58.3400000  58.7000000 151.4710000
  57.0170000  58.6930000 150.7340000  72.4350000  49.6220000 125.4750000
  71.6350000  49.1060000 125.3840000  73.1340000  48.9710000 125.5400000
  61.5620000  73.6100000 127.8280000  62.4200000  73.3970000 128.1960000
  61.0050000  73.7650000 128.5910000  31.0080000  80.2700000 151.7760000
  31.0000000  81.1500000 152.1520000  31.0010000  79.6850000 152.5350000
  34.3890000  31.0210000 156.0610000  33.6260000  31.5960000 156.1080000
  34.7560000  31.0360000 156.9450000  83.0090000  45.1270000 155.4170000
  83.5280000  45.9020000 155.6320000  82.2550000  45.1720000 156.0070000
  80.5930000  48.8850000 148.6990000  81.4180000  48.4440000 148.9000000
  79.9890000  48.1750000 148.4770000  71.1560000  35.8490000 145.5290000
  72.0560000  35.5640000 145.3760000  71.1890000  36.3110000 146.3670000
  47.4240000  51.1220000 125.8930000  48.0170000  50.3720000 125.9260000
  48.0010000  51.8820000 125.8180000  47.6470000  83.5130000 151.0760000
  48.3870000  82.9070000 151.1020000  47.0630000  83.1510000 150.4090000
  45.8050000  48.3070000 126.4160000  45.8070000  49.2510000 126.2600000
  46.7100000  48.0360000 126.2560000  78.4940000  34.1130000 163.3930000
  77.7910000  33.8820000 164.0000000  79.2420000  34.3150000 163.9570000
  42.5990000  55.2430000 157.3560000  43.3830000  54.9560000 156.8880000
  42.7280000  54.9330000 158.2530000  37.8100000  37.7390000 152.8160000
  38.4350000  38.4290000 152.5960000  36.9570000  38.1000000 152.5720000
  78.3170000  45.6060000 160.3390000  79.2680000  45.4950000 160.3360000
  78.1870000  46.5540000 160.3820000  85.5960000  44.7690000 154.4230000
  86.4620000  44.9150000 154.0430000  84.9860000  45.1020000 153.7650000
  76.7050000  59.2950000 132.0320000  75.8720000  59.5980000 132.3910000
  76.6760000  58.3420000 132.1270000  38.9620000  88.4150000 155.5400000
  39.6870000  89.0000000 155.3210000  38.2220000  89.0000000 155.7020000
  64.9780000  39.5700000 141.9440000  64.0370000  39.4390000 142.0600000
  65.0650000  39.9110000 141.0530000  42.2300000  70.3900000 140.4620000
  41.5050000  70.4010000 141.0860000  42.3710000  71.3110000 140.2410000
  44.5780000  72.4800000 123.7140000  45.3690000  72.9740000 123.5000000
  44.8910000  71.7410000 124.2370000  65.1300000  59.7410000 134.4820000
  65.5680000  60.5740000 134.3070000  65.4080000  59.5050000 135.3670000
  42.8520000  45.1800000 150.9800000  42.0320000  44.8580000 151.3530000
  42.6710000  45.2670000 150.0430000  80.3500000  74.4600000 136.2570000
  80.4580000  75.3640000 135.9630000  80.5780000  73.9300000 135.4920000
  50.5990000  31.0000000 144.4270000  51.1940000  31.0070000 145.1770000
  51.1740000  31.0730000 143.6640000  77.7960000  58.5370000 152.6040000
  78.2980000  58.3480000 153.3970000  77.1470000  57.8350000 152.5580000
  54.0100000  55.8700000 163.9960000  54.9590000  55.7410000 164.0000000
  53.6480000  54.9840000 163.9830000  58.5290000  76.9840000 138.1580000
  59.2740000  77.5840000 138.1900000  57.7620000  77.5490000 138.2530000
  78.2930000  48.7820000 161.8620000  78.0230000  49.6900000 161.7230000
  78.2490000  48.6610000 162.8100000  50.5840000  77.6680000 149.2980000
  51.4050000  78.1160000 149.0910000  49.9010000  78.2700000 149.0020000
  76.3170000  59.8350000 154.1460000  75.5270000  59.5010000 154.5710000
  76.8930000  60.0830000 154.8690000  52.5140000  69.6890000 153.9220000
  51.9030000  70.0260000 153.2670000  52.0240000  69.0030000 154.3760000
  68.7200000  52.1160000 135.4360000  69.3980000  52.5990000 134.9630000
  67.9180000  52.6160000 135.2850000  66.8890000  43.6210000 129.1570000
  66.6830000  44.5260000 129.3890000  67.8180000  43.6380000 128.9250000
  55.5280000  81.6550000 158.8450000  54.8780000  81.4920000 159.5280000
  55.2020000  81.1730000 158.0840000  88.1310000  41.6750000 127.5220000
  87.5130000  41.0450000 127.1510000  87.5850000  42.2820000 128.0210000
  60.4490000  50.6210000 162.0720000  61.3400000  50.2720000 162.1140000
  60.3900000  51.0260000 161.2070000  88.1560000  62.1050000 161.5790000
  87.5080000  62.8070000 161.5130000  89.0000000  62.5570000 161.5720000
  63.1100000  46.5580000 157.4690000  62.4450000  46.4420000 156.7910000
  63.0100000  45.7930000 158.0370000  85.3920000  78.1200000 154.0940000
  86.2350000  78.5280000 154.2890000  85.6100000  77.2180000 153.8590000
  70.6360000  61.2310000 135.5180000  70.2670000  60.7220000 136.2390000
  71.2160000  61.8630000 135.9430000  64.4010000  41.2300000 125.5510000
  64.4450000  40.3510000 125.9270000  64.7660000  41.8000000 126.2290000
  69.4090000  59.1450000 155.6530000  68.5250000  59.4860000 155.7900000
  69.2850000  58.2040000 155.5220000  40.3030000  88.9850000 163.4350000
  41.1030000  88.9540000 163.9600000  39.6300000  88.6050000 164.0000000
  81.6950000  38.5040000 123.6870000  80.8910000  38.9890000 123.5020000
  82.3990000  39.1260000 123.5000000  48.5230000  85.6970000 145.6760000
  47.9610000  86.1350000 146.3150000  49.3840000  85.6670000 146.0950000
  83.3440000  72.5640000 139.1660000  83.7300000  71.8260000 138.6950000
  83.8350000  72.6070000 139.9870000  56.9090000  61.2640000 158.7810000
  56.8450000  61.0120000 159.7020000  57.8490000  61.2880000 158.6040000
  48.5050000  54.4120000 133.6060000  48.5470000  53.5730000 133.1490000
  49.4200000  54.6730000 133.7160000  39.4460000  58.8430000 162.1810000
  39.6490000  58.9690000 163.1080000  40.2320000  59.1370000 161.7200000
  55.7930000  31.3400000 125.5680000  56.6050000  31.0000000 125.1920000
  55.9660000  31.3890000 126.5080000  74.2700000  32.3890000 146.4400000
  73.4240000  32.5680000 146.0300000  74.1460000  31.5520000 146.8900000
  67.7210000  64.6930000 149.5170000  67.2370000  65.5070000 149.6610000
  67.4390000  64.3970000 148.6510000  86.5970000  63.3150000 145.1400000
  86.6870000  62.9030000 144.2810000  87.1520000  62.7910000 145.7170000
  52.1640000  58.4430000 151.7420000  52.4520000  59.2720000 152.1240000
  52.4860000  58.4700000 150.8400000  45.5820000  44.3200000 125.8840000
  45.2050000  43.4810000 126.1500000  44.8250000  44.8900000 125.7480000
  57.3870000  44.2390000 150.3620000  57.1140000  45.0110000 149.8660000
  58.3390000  44.2160000 150.2650000  74.4350000  74.5760000 123.6050000
  74.9620000  73.7770000 123.6250000  73.5290000  74.2660000 123.6170000
  31.7240000  85.8020000 137.3830000  32.4140000  86.4590000 137.4760000
  31.0000000  86.2720000 136.9670000  66.5880000  51.2500000 133.2740000
  67.4720000  50.9340000 133.4570000  66.7200000  52.0810000 132.8180000
  68.4800000  54.4170000 138.0850000  68.4920000  53.6200000 137.5560000
  68.0270000  55.0600000 137.5390000  69.2710000  76.4050000 132.0910000
  70.1390000  76.7030000 132.3650000  68.7170000  77.1820000 132.1670000
  80.2540000  31.1070000 147.4460000  80.7640000  31.0190000 146.6400000
  80.8960000  31.0000000 148.1480000  43.8580000  70.9990000 150.7440000
  42.9700000  70.6780000 150.9020000  44.2430000  70.3570000 150.1470000
  53.6950000  36.9850000 151.7040000  53.4440000  37.4770000 152.4850000
  54.4570000  37.4520000 151.3600000  85.2980000  68.3760000 133.5200000
  84.8400000  67.5390000 133.4440000  85.0160000  68.7270000 134.3660000
  80.9960000  51.4060000 130.6010000  80.6760000  52.2820000 130.3860000
  80.2100000  50.9150000 130.8420000  38.3570000  57.6950000 152.7600000
  39.0030000  57.0580000 153.0630000  37.7220000  57.7510000 153.4750000
  83.7040000  58.6890000 127.3600000  83.6520000  57.8180000 126.9660000
  84.3880000  58.6110000 128.0250000  74.4560000  33.3790000 123.5000000
  73.5070000  33.2620000 123.5000000  74.8080000  32.4890000 123.5000000
  78.9220000  63.4610000 159.1050000  79.2580000  64.3320000 159.3140000
  79.7050000  62.9310000 158.9560000  31.9510000  45.9470000 150.0560000
  31.2530000  46.6020000 150.0370000  32.2280000  45.9180000 150.9720000
  58.7980000  58.5870000 127.3950000  59.3770000  57.9270000 127.7780000
  57.9540000  58.1430000 127.3090000  78.5450000  37.9200000 125.9010000
  78.0290000  38.4160000 125.2650000  78.1390000  37.0540000 125.9150000
  62.3470000  58.9750000 135.2980000  62.6810000  58.6270000 136.1240000
  62.8990000  58.5710000 134.6270000  75.8280000  69.9320000 130.8450000
  75.3030000  70.7310000 130.8200000  76.4150000  70.0520000 131.5920000
  47.7610000  67.0060000 130.7110000  48.6650000  66.7700000 130.5060000
  47.2600000  66.2070000 130.5420000  58.4500000  66.7260000 142.8820000
  59.0370000  66.1750000 142.3650000  59.0080000  67.4320000 143.2080000
  81.7320000  32.3620000 123.5270000  82.3090000  33.1260000 123.5010000
  82.3280000  31.6120000 123.5370000  60.0510000  61.5010000 135.1990000
  60.2050000  62.3990000 135.4930000  60.8850000  61.2270000 134.8170000
  45.5290000  54.0400000 158.6940000  46.1540000  54.1060000 159.4150000
  45.3030000  54.9480000 158.4890000  34.9520000  42.6340000 148.3760000
  34.1350000  42.6750000 147.8790000  34.9110000  41.7960000 148.8380000
  37.7230000  76.7370000 145.1980000  38.1430000  76.4310000 146.0010000
  37.6730000  75.9590000 144.6410000  70.3130000  68.9370000 127.8870000
  69.3590000  68.9920000 127.9290000  70.5760000  68.6470000 128.7610000
  54.9690000  51.8850000 141.7870000  55.5310000  52.5440000 142.1930000
  55.1350000  51.0860000 142.2870000  60.0170000  52.2150000 143.1150000
  59.5710000  51.4440000 143.4660000  59.3090000  52.8090000 142.8660000
  58.9590000  33.6160000 163.9190000  59.4160000  32.7790000 164.0000000
  58.6000000  33.6080000 163.0320000  55.3380000  45.5290000 161.1190000
  55.3100000  44.5820000 161.2570000  56.2520000  45.7130000 160.9010000
  82.3970000  31.0000000 163.9900000  82.0590000  31.8950000 164.0000000
  83.0580000  31.0000000 163.2970000  47.3900000  42.8870000 162.3870000
  47.1710000  43.0160000 163.3090000  47.0880000  42.0000000 162.1890000
  73.1610000  53.0660000 125.1980000  74.0550000  52.8820000 124.9080000
  73.2320000  53.8860000 125.6870000  52.2820000  79.2990000 140.0100000
  51.8360000  80.1360000 140.1410000  53.2060000  79.5310000 139.9160000
  68.2500000  50.7760000 161.4970000  68.7620000  51.2660000 160.8540000
  68.2010000  49.8890000 161.1380000  57.9430000  57.0340000 137.4030000
  58.6720000  56.5730000 136.9880000  58.2390000  57.9430000 137.4660000
  76.4080000  36.8420000 138.0260000  76.5240000  37.4170000 137.2690000
  77.1500000  37.0450000 138.5970000  67.9670000  47.7230000 157.2270000
  68.0240000  47.1590000 157.9980000  67.0870000  48.0980000 157.2690000
  71.0270000  62.6850000 156.5550000  70.6130000  63.5290000 156.7330000
  71.9380000  62.9020000 156.3560000  41.6920000  61.1010000 155.2810000
  42.6300000  61.2580000 155.3840000  41.6180000  60.6100000 154.4620000
  40.2180000  82.8570000 126.6170000  40.1540000  82.1900000 127.3010000
  40.9660000  83.3950000 126.8750000  85.6310000  31.0080000 156.5370000
  85.9290000  31.0000000 155.6280000  84.6750000  31.0000000 156.4760000
  51.4590000  31.0220000 155.6460000  50.6390000  31.0000000 155.1540000
  51.2320000  31.4480000 156.4730000  88.8140000  36.8960000 124.0760000
  88.9840000  37.6550000 123.5190000  88.9880000  36.1410000 123.5130000
  38.8550000  52.2680000 126.3500000  39.6880000  51.9420000 126.0110000
  38.4360000  51.4990000 126.7360000  68.1250000  61.3170000 149.7180000
  68.3590000  62.2160000 149.4870000  68.9130000  60.9630000 150.1320000
  49.6850000  46.1900000 137.3900000  49.3550000  45.2940000 137.3320000
  49.9010000  46.3080000 138.3150000  34.7070000  33.8730000 160.9540000
  35.3920000  33.4580000 161.4780000  34.0940000  34.2290000 161.5980000
  62.5480000  33.4980000 145.1030000  62.1480000  33.3290000 145.9550000
  63.4670000  33.6790000 145.3010000  72.2210000  31.0000000 124.9630000
  73.1530000  31.1830000 124.8430000  71.9130000  31.6950000 125.5450000
  53.8070000  42.8910000 139.3210000  54.0720000  43.7860000 139.5320000
  52.8510000  42.9270000 139.2860000  31.5360000  77.1860000 148.4530000
  31.0000000  77.6860000 147.8380000  31.0000000  76.4240000 148.6730000
  88.9480000  37.7010000 145.6680000  88.1420000  37.4950000 146.1410000
  89.0000000  37.0350000 144.9820000  68.5960000  43.2160000 148.2210000
  68.4140000  43.3250000 147.2880000  68.3840000  42.3000000 148.4020000
  50.3440000  86.0530000 143.8190000  51.2200000  85.9470000 143.4480000
  50.2780000  86.9870000 144.0180000  89.0000000  47.4520000 143.4190000
  88.1250000  47.8340000 143.3490000  88.8810000  46.6790000 143.9720000
  47.3860000  83.2920000 159.4570000  48.1400000  82.8420000 159.0760000
  46.8630000  82.5930000 159.8500000  69.6330000  60.0280000 138.5560000
  68.7020000  59.8810000 138.7190000  69.9580000  59.1850000 138.2390000
  65.8200000  41.1070000 158.0620000  66.0590000  40.6640000 157.2480000
  65.1680000  41.7580000 157.7990000  60.4210000  39.7780000 149.1800000
  61.2170000  39.9230000 149.6910000  60.4610000  38.8550000 148.9300000
  54.7780000  54.0540000 135.6430000  54.2330000  53.4930000 136.1950000
  54.2580000  54.1890000 134.8510000  85.0830000  43.2290000 157.5640000
  84.3750000  43.5440000 157.0030000  85.7640000  43.8980000 157.4900000
  44.7830000  80.4830000 163.3210000  44.2720000  81.2730000 163.4960000
  45.6840000  80.7290000 163.5310000  32.0710000  54.3310000 140.2980000
  32.6100000  54.9130000 139.7620000  31.1780000  54.4760000 139.9860000
  46.2060000  54.1550000 153.2840000  46.4450000  54.1150000 152.3580000
  47.0430000  54.1260000 153.7490000  63.7370000  65.9980000 135.4650000
  64.6010000  65.5880000 135.4190000  63.9190000  66.9220000 135.6360000
  31.0070000  73.1450000 161.7570000  31.0000000  73.7070000 162.5320000
  31.0200000  73.7550000 161.0190000  88.9040000  60.7650000 136.3620000
  89.0000000  60.0470000 135.7370000  87.9580000  60.8720000 136.4620000
  31.0490000  58.0030000 151.7880000  31.0000000  58.4880000 152.6110000
  31.0610000  57.0820000 152.0520000  79.4350000  77.2160000 159.2280000
  79.7990000  78.0070000 158.8300000  78.5130000  77.2190000 158.9670000
  81.2100000  83.8690000 130.9090000  81.4670000  83.0240000 130.5400000
  80.9920000  83.6760000 131.8210000  45.6630000  85.5560000 140.1590000
  46.3140000  86.1130000 140.5850000  46.1220000  84.7310000 139.9990000
  53.5250000  59.7510000 146.7010000  53.7770000  59.3050000 145.8920000
  54.2860000  60.2880000 146.9260000  57.0540000  66.0750000 131.7780000
  56.2960000  66.3480000 132.2940000  57.8090000  66.2940000 132.3250000
  43.4090000  55.5240000 141.1670000  42.4650000  55.5700000 141.3130000
  43.5200000  55.7500000 140.2430000  34.1890000  67.0270000 149.5670000
  33.9790000  66.0980000 149.4690000  33.8590000  67.2570000 150.4360000
  68.6850000  31.0160000 147.3850000  68.7880000  31.9320000 147.1290000
  67.8800000  31.0000000 147.9030000  54.9230000  61.7200000 123.8790000
  54.0870000  61.4480000 123.5000000  55.0310000  62.6280000 123.5940000
  44.6990000  47.5630000 161.5160000  45.3470000  46.8580000 161.5260000
  43.8540000  47.1130000 161.5260000  68.8630000  50.0500000 156.9850000
  69.5890000  50.5540000 157.3520000  68.0860000  50.3840000 157.4340000
  59.8210000  37.5530000 131.7090000  60.6470000  37.0700000 131.6760000
  60.0400000  38.3720000 132.1540000  59.5210000  60.7410000 132.3360000
  59.9280000  61.5890000 132.5120000  58.6070000  60.9490000 132.1410000
  35.5610000  88.6860000 148.9680000  36.1690000  89.0000000 149.6370000
  35.6470000  87.7320000 148.9950000  63.3850000  56.5610000 144.4710000
  63.3480000  55.6050000 144.4680000  62.5280000  56.8330000 144.8000000
  66.0320000  79.3230000 163.0690000  65.8070000  79.3100000 163.9980000
  66.5880000  80.0960000 162.9670000  34.4770000  46.7150000 151.8280000
  35.4170000  46.8520000 151.7150000  34.0830000  47.5610000 151.6140000
  59.1540000  86.0040000 155.6000000  59.2630000  86.9160000 155.8680000
  59.9460000  85.5660000 155.9130000  53.6800000  42.1490000 159.5400000
  54.2190000  42.5890000 160.1960000  52.9760000  42.7710000 159.3510000
  44.5410000  88.7750000 138.9210000  44.6940000  87.8300000 138.9150000
  44.3350000  88.9790000 139.8340000  31.1110000  56.0300000 162.1200000
  31.0000000  55.0800000 162.0860000  32.0580000  56.1590000 162.1870000
  60.4130000  48.3650000 140.8120000  60.1880000  49.1840000 141.2530000
  59.9330000  48.4000000 139.9830000  49.7070000  55.5480000 131.2410000
  49.7670000  54.6180000 131.0240000  48.7680000  55.7140000 131.3280000
  55.6680000  55.4680000 132.0850000  54.7220000  55.4080000 132.2230000
  55.7610000  55.7120000 131.1640000  47.4990000  37.8620000 127.7010000
  48.1150000  38.5300000 128.0010000  47.2120000  37.4230000 128.5020000
  43.8420000  83.7110000 133.6100000  44.0950000  84.5210000 134.0520000
  43.3590000  83.2170000 134.2720000  68.1780000  43.4360000 134.2430000
  68.4410000  42.7610000 134.8680000  68.9560000  43.9840000 134.1390000
  36.4400000  53.6440000 142.8280000  36.9200000  53.8160000 143.6370000
  37.1210000  53.5010000 142.1700000  68.5090000  62.9350000 140.6050000
  67.9260000  62.9150000 139.8450000  69.1890000  62.2920000 140.4020000
  70.0000000  44.8200000 159.1850000  70.6740000  44.9090000 159.8580000
  69.2060000  45.1690000 159.5910000  41.1790000  40.2870000 153.4750000
  40.6580000  41.0770000 153.3330000  40.5400000  39.6180000 153.7200000
  33.9620000  86.2350000 152.2970000  34.5460000  86.3290000 151.5450000
  33.0990000  86.4790000 151.9620000  71.0430000  65.9420000 131.4310000
  70.2180000  65.4790000 131.2880000  71.0630000  66.6140000 130.7490000
  64.4550000  89.0000000 155.7900000  65.4050000  88.9920000 155.6760000
  64.1510000  88.2250000 155.3170000  82.0340000  82.1440000 155.6790000
  82.2490000  83.0750000 155.6390000  82.8830000  81.7030000 155.7240000
  45.6020000  35.6850000 130.1290000  44.9050000  35.7720000 129.4790000
  45.6640000  34.7430000 130.2890000  67.7700000  65.6310000 141.9720000
  68.4210000  66.3170000 142.1190000  66.9280000  66.0730000 142.0770000
  75.6320000  59.2110000 161.5090000  75.5540000  60.1070000 161.1830000
  76.1520000  58.7590000 160.8440000  64.6750000  41.9410000 160.2430000
  65.5890000  41.7790000 160.4730000  64.2280000  41.1170000 160.4390000
  64.5170000  38.1160000 151.3560000  64.0900000  38.8930000 150.9950000
  64.6100000  38.3060000 152.2900000  84.4180000  52.2460000 152.4300000
  84.8940000  51.4560000 152.6850000  83.7050000  51.9280000 151.8760000
  82.6810000  61.0390000 129.7470000  83.0450000  60.4120000 129.1220000
  82.1840000  60.5020000 130.3640000  61.2140000  68.7080000 163.9400000
  60.2680000  68.5740000 164.0000000  61.3230000  69.6590000 163.9540000
  66.1270000  88.6570000 130.6820000  65.7140000  89.0000000 131.4750000
  65.5690000  88.9670000 129.9680000  55.7640000  71.7440000 161.9730000
  56.0520000  71.6500000 161.0650000  56.3010000  71.1180000 162.4610000
  31.6030000  46.4390000 139.4170000  31.0350000  45.7070000 139.6570000
  31.0000000  47.1470000 139.1910000  65.9240000  57.7820000 156.6690000
  66.3580000  58.4020000 157.2540000  66.5310000  57.0430000 156.6080000
  39.1400000  49.8300000 134.8460000  38.4650000  50.3050000 134.3620000
  39.7710000  50.5040000 135.1010000  84.3960000  62.6810000 162.2080000
  85.1140000  63.2990000 162.0690000  84.4650000  62.4380000 163.1320000
  51.1210000  59.5950000 145.2900000  51.6770000  60.2880000 144.9350000
  50.3360000  59.6140000 144.7420000  70.8400000  47.3690000 142.1000000
  71.0760000  46.4800000 141.8370000  71.6790000  47.7980000 142.2730000
  70.5470000  49.2940000 161.7670000  70.8780000  49.9770000 161.1840000
  71.0680000  48.5210000 161.5520000  31.0670000  78.9250000 144.2770000
  31.0380000  79.2960000 145.1590000  31.0000000  77.9800000 144.4120000
  84.3650000  62.8450000 150.6560000  85.2960000  63.0650000 150.6940000
  84.3250000  61.9240000 150.9150000  81.5010000  61.9520000 134.4850000
  81.8010000  62.8490000 134.3390000  82.3000000  61.4570000 134.6640000
  73.5340000  76.6700000 130.9010000  74.2280000  77.3210000 130.8040000
  72.7220000  77.1700000 130.8190000  46.2050000  47.5560000 133.5390000
  45.6730000  47.9730000 134.2160000  46.0900000  46.6170000 133.6880000
  54.1030000  53.8950000 129.3890000  54.3120000  53.6770000 130.2980000
  54.8260000  54.4550000 129.1050000  79.3640000  38.6360000 134.5480000
  80.1190000  38.2580000 134.9970000  78.7600000  37.9030000 134.4330000
  45.0570000  36.4190000 151.3490000  45.5420000  36.8480000 150.6440000
  44.7580000  35.5940000 150.9660000  31.0520000  72.0100000 140.8230000
  31.0000000  71.0750000 140.6250000  31.0030000  72.4390000 139.9680000
  64.9020000  65.4810000 144.1920000  64.3530000  64.6970000 144.1760000
  64.2800000  66.2090000 144.2150000  57.3360000  64.9110000 152.1290000
  57.7910000  65.6440000 152.5430000  58.0270000  64.2760000 151.9390000
  67.1040000  71.2940000 138.5970000  67.2340000  71.9800000 137.9430000
  67.8770000  71.3480000 139.1590000  31.5970000  43.5760000 147.5560000
  31.0190000  43.7150000 148.3060000  31.0040000  43.4660000 146.8120000
  79.4090000  86.3760000 137.7520000  78.6360000  86.3020000 137.1920000
  80.1130000  86.6330000 137.1560000  55.3880000  39.5140000 123.5000000
  55.9360000  40.2540000 123.7590000  55.9560000  38.7490000 123.5960000
  35.8740000  60.2770000 133.1620000  36.4020000  59.9700000 132.4250000
  35.0120000  59.8880000 133.0180000  58.6310000  66.0380000 123.5000000
  59.1650000  65.2450000 123.5390000  58.5180000  66.2960000 124.4150000
  62.3610000  37.9420000 126.2010000  62.1470000  37.0270000 126.3780000
  61.5180000  38.3520000 126.0020000  75.7130000  39.9870000 145.5070000
  76.0430000  39.7990000 146.3860000  75.0910000  39.2820000 145.3290000
  76.9020000  88.4190000 123.5930000  76.1470000  89.0000000 123.5000000
  77.6610000  89.0000000 123.5260000  56.3330000  34.0570000 159.4840000
  55.3960000  33.9550000 159.3220000  56.6780000  33.1640000 159.4730000
  76.5830000  55.7160000 132.0920000  76.5700000  56.0280000 131.1870000
  76.7860000  54.7830000 132.0210000  68.3540000  71.7620000 123.5550000
  67.8100000  70.9760000 123.5000000  69.0460000  71.5320000 124.1760000
  35.7380000  48.0020000 138.0160000  35.1380000  48.2210000 137.3030000
  35.9020000  48.8350000 138.4580000  38.8110000  88.4170000 149.1090000
  39.3860000  88.9400000 149.6670000  38.5860000  89.0000000 148.3840000
  45.8830000  37.7620000 125.4060000  45.3170000  37.7830000 124.6350000
  45.9160000  38.6720000 125.7040000  72.7890000  43.7380000 158.0580000
  72.6740000  43.4120000 157.1660000  72.5250000  43.0060000 158.6170000
  81.8510000  57.9260000 125.1500000  81.5880000  58.8150000 124.9140000
  81.3390000  57.3620000 124.5700000  62.3050000  89.0000000 152.5670000
  63.1750000  88.9240000 152.9600000  61.7030000  88.9850000 153.3110000
  60.1610000  52.9860000 123.7250000  60.2580000  53.9340000 123.6370000
  59.2140000  52.8430000 123.7490000  55.8900000  61.8600000 133.3580000
  55.3580000  62.5950000 133.6630000  55.5090000  61.6240000 132.5110000
  33.2470000  43.0370000 144.8330000  32.4030000  42.5870000 144.8400000
  33.2840000  43.4920000 145.6750000  49.2780000  31.6960000 124.4210000
  49.7420000  31.0000000 124.8870000  49.4980000  31.5550000 123.5000000
  47.9040000  76.4500000 153.8300000  47.1950000  75.9330000 153.4470000
  48.6980000  75.9530000 153.6320000  57.6800000  85.2650000 158.7850000
  58.1530000  85.2670000 157.9530000  58.2640000  84.8090000 159.3920000
  78.4020000  67.3870000 155.0640000  77.8310000  67.8450000 154.4470000
  79.0370000  68.0490000 155.3400000  31.2430000  63.3970000 139.0250000
  31.9740000  63.1700000 138.4520000  31.3050000  62.7750000 139.7510000
  86.2200000  82.2170000 149.0720000  86.4940000  82.0010000 149.9630000
  85.3830000  81.7640000 148.9620000  53.9940000  36.6450000 163.1320000
  53.2430000  37.2100000 163.3100000  53.6100000  35.7970000 162.9080000
  66.5480000  47.3380000 139.6480000  66.2040000  47.0750000 140.5020000
  66.9030000  46.5310000 139.2740000  74.2780000  64.5720000 147.0190000
  73.5640000  64.3170000 147.6030000  74.1400000  65.5070000 146.8640000
  54.1510000  73.8390000 159.3000000  54.2910000  73.0040000 159.7450000
  53.3320000  74.1720000 159.6680000  50.7610000  61.1890000 151.4670000
  50.2140000  60.4350000 151.2450000  50.5430000  61.8460000 150.8050000
  40.5100000  58.1160000 125.5570000  40.3810000  57.5620000 126.3270000
  41.1700000  58.7550000 125.8290000  49.0410000  58.3860000 128.0870000
  48.6310000  58.2230000 127.2390000  49.7920000  58.9470000 127.8880000
  81.7220000  73.8950000 158.6720000  80.8470000  73.5640000 158.8720000
  82.2850000  73.5030000 159.3410000  70.9130000  57.8610000 148.3450000
  71.3190000  57.1340000 147.8730000  70.3010000  58.2440000 147.7160000
  65.5840000  49.4360000 129.8220000  65.7670000  50.3520000 130.0290000
  64.8680000  49.4710000 129.1880000  45.9870000  78.1880000 156.9290000
  45.6540000  77.3090000 156.7490000  45.4310000  78.7670000 156.4060000
  50.0750000  80.9630000 148.2100000  50.7890000  80.5710000 147.7090000
  50.4390000  81.7830000 148.5460000  38.1010000  69.6230000 163.8930000
  38.8720000  69.0560000 163.9110000  37.3590000  69.0230000 163.9690000
  63.2770000  53.0370000 145.2670000  63.1270000  52.9010000 144.3320000
  64.1620000  53.3990000 145.3190000  48.8740000  56.5320000 155.8720000
  48.4050000  57.3540000 156.0090000  48.1960000  55.8580000 155.9210000
  86.6200000  68.2070000 156.7040000  85.6650000  68.2610000 156.7180000
  86.9060000  69.0790000 156.4280000  76.1500000  33.2190000 152.2820000
  77.0030000  32.7930000 152.3660000  75.8930000  33.4200000 153.1820000
  67.1650000  41.4540000 139.2240000  67.4190000  40.8910000 139.9550000
  66.2480000  41.2340000 139.0590000  87.8750000  87.9430000 130.0720000
  88.2040000  88.8410000 130.1220000  88.6610000  87.4030000 129.9920000
  59.6150000  63.8430000 146.9630000  58.8580000  64.0220000 146.4060000
  59.2450000  63.7100000 147.8360000  58.6530000  51.4440000 134.9410000
  59.0050000  50.5560000 134.8890000  59.4240000  52.0110000 134.9010000
  78.7020000  76.1250000 150.5400000  79.3040000  76.0560000 151.2800000
  78.8190000  77.0190000 150.2170000  78.8260000  36.1410000 123.5100000
  77.9200000  36.4470000 123.5000000  79.3500000  36.9420000 123.5220000
  67.1830000  36.7510000 153.9810000  68.1200000  36.6280000 154.1320000
  67.0050000  36.2680000 153.1730000  33.8270000  61.4070000 156.2840000
  33.3090000  61.2610000 157.0760000  34.0890000  62.3270000 156.3350000
  51.6740000  53.0180000 141.0010000  52.4850000  53.3020000 141.4230000
  51.3150000  53.8140000 140.6090000  72.6600000  81.9170000 130.4390000
  73.2830000  82.1780000 129.7610000  72.9820000  81.0690000 130.7470000
  80.0230000  66.9550000 142.8090000  79.3970000  67.5820000 142.4490000
  79.9510000  67.0610000 143.7580000  51.8570000  54.0060000 132.6530000
  52.7940000  53.8270000 132.5880000  51.4500000  53.1410000 132.7020000
  36.7000000  79.4300000 145.2430000  36.6360000  79.2040000 146.1700000
  36.0460000  78.8770000 144.8150000  86.5350000  80.7510000 136.9030000
  86.5320000  79.9370000 137.4060000  86.5240000  81.4430000 137.5650000
  69.7940000  79.9330000 131.7030000  68.8930000  79.6180000 131.6340000
  70.2930000  79.1710000 131.9990000  48.4570000  60.5380000 130.9110000
  49.2210000  60.0970000 130.5400000  48.7200000  60.7610000 131.8050000
  82.4600000  64.6460000 136.9930000  82.5030000  65.1470000 136.1790000
  83.0860000  63.9310000 136.8680000  79.0120000  74.4780000 156.8430000
  78.7450000  74.8770000 156.0160000  79.3790000  73.6290000 156.5930000
  84.7310000  44.2730000 137.4830000  84.1340000  44.8240000 136.9770000
  85.2940000  44.8930000 137.9480000  41.7890000  40.6860000 137.9410000
  41.3940000  41.1000000 137.1740000  42.4930000  41.2820000 138.2000000
  88.2980000  46.5650000 132.8810000  88.1840000  45.8590000 132.2460000
  88.8460000  46.1840000 133.5680000  54.8260000  79.1830000 137.1090000
  55.0990000  80.0300000 136.7580000  54.6550000  78.6460000 136.3350000
  86.5250000  47.5380000 161.9670000  86.4970000  48.4950000 161.9950000
  85.6370000  47.2790000 161.7220000  31.2980000  35.3480000 162.2640000
  31.0150000  35.9060000 161.5400000  31.0000000  35.8040000 163.0510000
  31.0500000  36.3500000 142.3710000  31.4400000  35.6130000 141.9010000
  31.0000000  37.0500000 141.7210000  73.3330000  86.4120000 132.0580000
  73.6350000  86.6550000 131.1830000  72.3860000  86.3080000 131.9650000
  57.8200000  37.1180000 142.6260000  57.9800000  36.2000000 142.8440000
  57.0230000  37.3430000 143.1070000  65.2500000  88.1290000 133.7800000
  65.5990000  88.9980000 133.9770000  66.0180000  87.6130000 133.5330000
  78.6490000  50.7340000 158.4070000  78.6770000  49.8110000 158.1530000
  79.5230000  50.9150000 158.7520000  37.4720000  41.2210000 143.3770000
  36.9930000  42.0390000 143.5030000  36.8200000  40.6110000 143.0320000
  79.5830000  46.2740000 163.0870000  79.7510000  46.5050000 164.0000000
  80.3670000  45.8000000 162.8100000  35.1890000  65.5060000 160.6210000
  35.8140000  65.8540000 159.9860000  35.0110000  64.6150000 160.3190000
  61.7350000  40.6440000 123.5000000  61.1990000  41.3790000 123.7990000
  62.2470000  40.3920000 124.2690000  45.5720000  49.1690000 147.3530000
  45.8700000  48.5660000 146.6720000  45.6140000  50.0340000 146.9430000
  78.4090000  64.3380000 147.7590000  79.0520000  64.1270000 148.4370000
  78.3880000  63.5610000 147.2000000  64.3540000  64.1050000 139.1530000
  64.6120000  64.4120000 138.2840000  63.8820000  63.2880000 138.9890000
  40.5120000  86.1260000 128.3180000  40.0690000  86.9600000 128.1620000
  39.8090000  85.4760000 128.3110000  36.6440000  39.9920000 125.6250000
  36.1920000  39.9710000 126.4680000  36.0110000  39.6320000 125.0040000
  82.7330000  88.9750000 133.4610000  81.8040000  88.9140000 133.2390000
  82.7490000  89.0000000 134.4190000  89.0000000  55.6510000 145.1060000
  88.9990000  54.6940000 145.0970000  88.1840000  55.8960000 144.6690000
  44.0200000  74.7760000 141.6530000  43.9410000  73.8350000 141.5000000
  44.9630000  74.9290000 141.7260000  42.8730000  41.5670000 141.4570000
  43.7680000  41.2330000 141.5110000  42.3220000  40.7850000 141.5000000
  65.3760000  80.8850000 137.7130000  65.6050000  81.6960000 137.2580000
  65.9670000  80.8570000 138.4650000  88.1600000  56.7360000 132.3720000
  88.9930000  56.2640000 132.3730000  88.4090000  57.6610000 132.3820000
  50.5920000  86.0720000 153.0540000  49.6890000  86.3850000 153.0150000
  51.1150000  86.8640000 153.1790000  48.5130000  32.3280000 135.4860000
  48.0140000  31.5780000 135.8090000  48.6580000  32.8710000 136.2610000
  79.2870000  61.0200000 161.4210000  78.6710000  60.3050000 161.2590000
  80.1070000  60.5820000 161.6520000  52.1820000  67.8680000 163.6180000
  52.4200000  68.7800000 163.4500000  51.3050000  67.9160000 164.0000000
  77.4390000  34.5210000 150.5810000  78.2720000  34.0540000 150.5110000
  77.4430000  35.1280000 149.8410000  70.7240000  64.2190000 141.0590000
  70.4240000  64.8900000 141.6720000  71.0120000  63.4960000 141.6170000
  52.0750000  65.3060000 132.0000000  51.7010000  65.8590000 131.3150000
  52.0730000  65.8590000 132.7820000  42.4570000  44.0380000 158.5850000
  43.4130000  43.9870000 158.6150000  42.1710000  43.1270000 158.5120000
  46.7470000  82.7450000 133.5300000  46.0350000  82.3560000 134.0370000
  46.8820000  83.6050000 133.9270000  73.6840000  62.2000000 126.2050000
  74.6210000  62.0630000 126.0690000  73.5000000  61.7800000 127.0460000
  48.3710000  49.4840000 147.9270000  48.5940000  49.4920000 146.9970000
  49.1440000  49.1160000 148.3560000  70.1400000  37.2720000 124.3480000
  70.8440000  36.9620000 124.9170000  70.5660000  37.4330000 123.5050000
  40.4510000  66.6360000 152.3820000  40.9070000  66.9090000 151.5860000
  39.5620000  66.4300000 152.0900000  31.4040000  43.0810000 158.7030000
  31.2010000  43.8370000 159.2530000  31.0000000  43.2840000 157.8590000
  51.9710000  46.2820000 140.7890000  51.0360000  46.2200000 140.5940000
  52.3090000  45.4000000 140.6290000  67.4250000  83.2680000 137.9400000
  67.6630000  84.1380000 138.2590000  67.6410000  83.2870000 137.0070000
  84.5170000  78.9380000 149.2870000  83.8100000  78.3100000 149.1380000
  84.4220000  79.1930000 150.2050000  81.2380000  81.2600000 152.1030000
  80.6620000  81.6730000 151.4610000  81.7540000  81.9820000 152.4630000
  76.5720000  64.8530000 155.6250000  76.5610000  65.7000000 155.1790000
  77.4440000  64.8000000 156.0160000  73.1160000  82.1130000 157.8340000
  73.2000000  83.0380000 158.0650000  72.1860000  81.9970000 157.6390000
  81.4910000  81.5810000 134.3990000  81.5930000  81.3350000 133.4800000
  81.1380000  82.4710000 134.3720000  49.9770000  49.8060000 161.0120000
  49.8580000  48.8720000 160.8410000  49.0880000  50.1420000 161.1310000
  69.0260000  66.3150000 126.1140000  69.7300000  66.5810000 125.5230000
  68.2620000  66.2120000 125.5460000  77.8660000  48.3730000 153.5870000
  78.6360000  47.8490000 153.8080000  77.3470000  47.8070000 153.0160000
  75.6650000  70.9260000 157.2210000  75.7090000  69.9850000 157.3910000
  74.7380000  71.0970000 157.0560000  60.3410000  53.5380000 130.2260000
  60.4140000  54.4920000 130.1960000  60.7590000  53.2900000 131.0510000
  85.9820000  72.2970000 144.1010000  85.3020000  71.8600000 144.6130000
  85.9060000  73.2210000 144.3390000  79.7890000  79.3710000 125.0190000
  80.6970000  79.6100000 124.8330000  79.5850000  79.8210000 125.8390000
  56.7420000  46.6000000 147.9090000  56.9050000  46.6150000 146.9660000
  55.8980000  46.1560000 147.9990000  67.7870000  81.8620000 131.6040000
  67.1580000  82.5840000 131.5910000  68.0740000  81.8090000 132.5160000
  40.5360000  77.6050000 133.8970000  41.4460000  77.3160000 133.8270000
  40.0310000  76.9120000 133.4720000  40.6660000  43.4040000 145.2450000
  40.8950000  42.9750000 144.4210000  39.7160000  43.5110000 145.2040000
  56.6280000  61.6310000 139.9740000  57.0980000  62.4000000 139.6510000
  56.2630000  61.2250000 139.1870000  34.8740000  75.6470000 140.3010000
  35.0300000  74.7670000 140.6440000  33.9510000  75.6450000 140.0460000
  61.5500000  67.3900000 161.4460000  61.5880000  66.4850000 161.7550000
  60.6770000  67.6930000 161.6960000  75.7130000  56.1470000 161.9080000
  74.9800000  56.6890000 161.6160000  75.8230000  55.4980000 161.2140000
  49.3280000  85.5350000 149.5080000  49.3010000  84.5790000 149.4830000
  49.2810000  85.8000000 148.5890000  83.8670000  84.9210000 137.0180000
  84.2970000  84.2040000 137.4840000  83.0110000  84.5690000 136.7750000
  40.3990000  70.0980000 156.7340000  40.8970000  70.9150000 156.7120000
  39.4830000  70.3750000 156.7320000  72.0400000  78.5860000 147.4110000
  71.4750000  77.9080000 147.7810000  71.4390000  79.1740000 146.9520000
  72.4250000  40.1740000 161.7680000  73.3370000  40.4270000 161.9090000
  71.9980000  40.9750000 161.4650000  66.5830000  38.9140000 144.3500000
  65.6340000  38.7990000 144.3410000  66.7090000  39.8630000 144.3790000
  50.5060000  38.1810000 142.7940000  49.7260000  38.2010000 143.3470000
  51.2350000  38.3020000 143.4020000  84.9030000  84.1930000 155.0440000
  84.2650000  83.9750000 154.3650000  84.8190000  83.4890000 155.6880000
  66.8580000  37.4630000 146.4780000  65.9260000  37.6570000 146.5790000
  66.9210000  36.5160000 146.6080000  63.5700000  83.0900000 136.8550000
  63.2190000  82.3240000 136.4010000  63.0730000  83.8280000 136.5010000
  53.8520000  47.4540000 129.6750000  53.3980000  47.8900000 130.3950000
  54.4460000  46.8380000 130.1040000  80.2020000  42.9300000 145.3860000
  80.4430000  42.0320000 145.1610000  80.9460000  43.2580000 145.8930000
  77.4580000  75.3200000 153.3000000  78.2040000  75.8030000 153.6540000
  77.6400000  74.4050000 153.5160000  78.3010000  84.5810000 146.1700000
  77.5480000  84.5520000 145.5810000  77.9210000  84.5270000 147.0480000
  31.8290000  86.3770000 154.8480000  31.0000000  86.4890000 154.3830000
  31.6510000  86.6890000 155.7350000  73.7140000  50.8340000 127.2490000
  73.0270000  51.4900000 127.1340000  74.3650000  51.0480000 126.5800000
  44.5030000  72.7450000 126.9980000  44.7570000  73.2490000 126.2260000
  44.5270000  71.8330000 126.7080000  31.0570000  36.8150000 123.9850000
  31.0000000  35.9910000 123.5000000  31.0260000  36.5530000 124.9050000
  46.0900000  71.4560000 154.6010000  45.2060000  71.1310000 154.4290000
  46.6340000  70.6690000 154.6260000  47.5560000  69.9970000 134.6320000
  48.1010000  69.7380000 135.3750000  47.5470000  69.2280000 134.0620000
  44.6260000  58.7360000 123.8360000  45.0290000  59.5370000 123.5000000
  45.1810000  58.0300000 123.5030000  74.8780000  33.0230000 138.0400000
  74.1460000  32.7380000 138.5870000  74.4670000  33.3330000 137.2330000
  70.6400000  48.7010000 144.5000000  70.3590000  47.8520000 144.8400000
  69.8270000  49.1960000 144.3890000  52.1230000  83.0050000 154.2590000
  52.8530000  83.4430000 153.8210000  52.4990000  82.6660000 155.0710000
  86.3670000  59.4930000 156.9610000  87.0830000  60.1260000 156.9240000
  86.7700000  58.6590000 156.7180000  84.1280000  82.2010000 151.7100000
  84.5280000  81.3950000 151.3830000  84.4780000  82.8890000 151.1440000
  68.3700000  46.7120000 143.0300000  69.0360000  46.0530000 143.2240000
  68.2960000  46.7040000 142.0750000  56.2140000  50.6830000 163.7470000
  55.6230000  51.3920000 164.0000000  57.0910000  51.0470000 163.8690000
  66.4500000  79.9990000 133.0990000  66.4610000  79.6340000 132.2140000
  67.2420000  79.6540000 133.5110000  34.3450000  33.8420000 127.4930000
  34.4640000  34.3550000 128.2920000  34.7320000  32.9900000 127.6940000
  84.6390000  51.5660000 141.0940000  84.5510000  51.0150000 140.3170000
  85.1330000  51.0300000 141.7140000  77.4750000  66.7420000 150.7220000
  77.8990000  65.9320000 151.0060000  77.6210000  66.7700000 149.7760000
  54.1480000  35.1200000 131.0210000  54.7590000  34.7660000 130.3750000
  53.7550000  34.3480000 131.4280000  37.3980000  72.9160000 145.2370000
  37.2730000  72.2810000 145.9420000  37.0380000  73.7330000 145.5840000
  36.8500000  66.1210000 123.5000000  37.6870000  65.6580000 123.5350000
  36.1920000  65.4250000 123.5000000  65.2020000  43.4900000 137.3010000
  65.5210000  42.7360000 136.8060000  64.5530000  43.8970000 136.7260000
  44.8740000  39.0560000 142.0480000  45.6770000  39.4600000 142.3780000
  45.1770000  38.3790000 141.4420000  61.3120000  72.1490000 141.0920000
  61.9980000  71.4840000 141.0280000  61.4540000  72.7140000 140.3320000
  65.6760000  76.5030000 155.9890000  64.7530000  76.2730000 156.0960000
  66.0640000  75.7430000 155.5540000  60.7660000  41.6920000 147.4860000
  61.6240000  41.9940000 147.7840000  60.2380000  42.4900000 147.4280000
  41.4000000  86.6240000 149.8840000  41.1290000  86.9490000 149.0250000
  42.3570000  86.6450000 149.8570000  77.2820000  51.0740000 135.9740000
  76.4980000  50.5250000 135.9760000  76.9460000  51.9710000 135.9700000
  33.6820000  39.0660000 158.9110000  34.2950000  38.3470000 159.0610000
  32.8530000  38.7540000 159.2760000  62.0930000  80.9100000 155.1780000
  62.4880000  81.7790000 155.1050000  62.8170000  80.3030000 155.0210000
  54.0380000  39.9280000 132.0360000  54.6980000  40.0830000 132.7120000
  53.9310000  40.7770000 131.6060000  39.9840000  37.4790000 148.1360000
  39.5810000  37.7760000 147.3200000  40.0330000  36.5270000 148.0470000
  44.4330000  87.1130000 129.4890000  45.2790000  86.7650000 129.2070000
  44.1370000  87.6480000 128.7530000  53.6910000  40.4790000 137.4740000
  52.9160000  40.8360000 137.9060000  53.3720000  39.7070000 137.0060000
  53.5110000  51.6310000 133.6180000  53.1600000  51.7920000 134.4940000
  52.8350000  51.1150000 133.1790000  38.8570000  66.0400000 158.0790000
  39.2610000  66.7370000 157.5630000  39.0000000  65.2460000 157.5630000
  49.6170000  41.3230000 148.3210000  50.1300000  40.9080000 149.0150000
  50.2630000  41.7950000 147.7950000  60.7410000  68.4900000 123.5000000
  60.6290000  67.5410000 123.5460000  61.6780000  68.6280000 123.6420000
  67.4000000  82.9840000 161.5720000  67.1220000  83.8800000 161.3820000
  66.6050000  82.5450000 161.8730000  63.6540000  57.9800000 162.4710000
  63.3010000  57.1870000 162.0670000  63.2970000  57.9760000 163.3600000
  77.8660000  57.9280000 125.4320000  78.1520000  57.0230000 125.5540000
  77.0680000  58.0010000 125.9550000  36.6530000  51.5650000 139.9710000
  37.4510000  51.6830000 140.4860000  36.0660000  52.2570000 140.2750000
  73.9340000  58.5020000 156.2180000  74.4310000  58.2080000 156.9810000
  73.0650000  58.1160000 156.3350000  52.2240000  50.4310000 158.3220000
  52.3450000  50.1850000 157.4050000  52.7010000  51.2560000 158.4140000
  70.1950000  75.1230000 147.7010000  70.7150000  74.4330000 147.2880000
  70.7660000  75.4780000 148.3820000  45.8320000  80.4670000 142.4740000
  46.1030000  81.3350000 142.7730000  46.1030000  80.4330000 141.5570000
  43.7860000  39.3480000 139.1170000  44.4930000  39.8410000 139.5330000
  44.2320000  38.7260000 138.5420000  83.6320000  51.1430000 137.9060000
  83.6860000  50.1910000 137.9850000  82.7100000  51.3160000 137.7130000
  38.2040000  78.7120000 161.5140000  37.4630000  79.2220000 161.1870000
  38.1010000  77.8520000 161.1050000  44.4990000  37.2410000 131.7580000
  44.5600000  38.1930000 131.8390000  43.6400000  37.0880000 131.3640000
  49.4890000  36.4280000 128.2340000  50.0640000  35.7390000 128.5670000
  50.0400000  36.9310000 127.6330000  73.4080000  33.9400000 134.5200000
  72.5440000  33.8030000 134.9080000  73.4750000  33.2690000 133.8400000
  86.5120000  50.8820000 143.8410000  87.0210000  50.2230000 143.3710000
  86.3900000  50.5110000 144.7160000  74.2780000  43.0220000 137.2900000
  73.8160000  43.8530000 137.4000000  75.2040000  43.2640000 137.2670000
  52.4150000  41.9480000 124.4310000  53.0790000  41.4230000 124.8780000
  52.5630000  41.7800000 123.5000000  49.9260000  43.3830000 127.8900000
  49.0090000  43.1110000 127.8650000  49.8920000  44.3390000 127.9280000
  31.9190000  88.8990000 153.5850000  31.9130000  89.0000000 154.5370000
  31.0000000  88.9800000 153.3290000  58.2720000  87.6420000 163.9210000
  57.5070000  87.1160000 163.6880000  57.9350000  88.5340000 164.0000000
  44.4580000  40.6930000 123.5000000  44.2600000  39.7570000 123.5230000
  44.8260000  40.8810000 124.3640000  80.0170000  63.3000000 136.1470000
  80.0530000  63.4240000 137.0950000  80.2370000  64.1590000 135.7850000
  49.4740000  61.5190000 153.6120000  49.2130000  61.9650000 154.4170000
  50.1750000  60.9250000 153.8830000  56.9010000  86.7330000 124.3010000
  56.4830000  86.4140000 123.5020000  56.5710000  86.1570000 124.9910000
  81.3670000  45.5850000 128.4720000  81.4080000  45.1950000 129.3450000
  81.7460000  46.4580000 128.5800000  40.5750000  38.7230000 159.6530000
  39.8300000  39.2660000 159.9110000  40.5310000  38.6940000 158.6970000
  65.0050000  36.0710000 162.7460000  64.3220000  35.4370000 162.9620000
  65.7910000  35.5410000 162.6110000  62.5510000  61.3600000 155.0630000
  62.3790000  62.1040000 154.4870000  61.6940000  60.9530000 155.1930000
  55.8640000  66.9170000 161.0360000  56.7430000  66.6100000 160.8170000
  55.6120000  67.4720000 160.2970000  37.4370000  50.5650000 124.4310000
  38.3710000  50.7100000 124.2790000  37.1810000  49.9330000 123.7600000
  88.6730000  36.3870000 161.9560000  88.8660000  35.9930000 161.1050000
  87.7410000  36.6030000 161.9150000  80.4340000  40.1090000 159.5210000
  79.8330000  40.6790000 159.0420000  81.1770000  40.6730000 159.7380000
  81.6810000  40.0370000 135.8030000  82.1100000  39.4800000 136.4520000
  82.2340000  39.9680000 135.0240000  76.4390000  65.0180000 133.8430000
  75.5410000  64.7180000 133.7010000  76.6810000  65.4470000 133.0220000
  50.4770000  73.3160000 141.9200000  49.5290000  73.3180000 142.0480000
  50.8390000  73.1910000 142.7970000  31.8880000  31.1930000 126.6220000
  31.1230000  31.5720000 126.1900000  31.5910000  31.0000000 127.5120000
  42.3620000  49.7400000 131.3660000  43.2320000  50.1100000 131.5080000
  41.8430000  50.0520000 132.1080000  46.4880000  75.3980000 134.9570000
  45.9790000  76.1560000 135.2450000  45.8560000  74.6790000 134.9380000
  39.1440000  82.1750000 138.4210000  39.9650000  81.7100000 138.2580000
  39.2920000  83.0530000 138.0700000  88.7750000  67.1270000 161.5040000
  88.7730000  66.1800000 161.6450000  89.0000000  67.2310000 160.5800000
  81.9350000  42.1190000 162.2920000  82.8120000  41.7360000 162.3160000
  82.0460000  42.9410000 161.8120000  83.0540000  72.8740000 142.6260000
  82.8170000  73.6830000 143.0790000  82.2240000  72.4100000 142.5130000
  65.0250000  73.6810000 127.8640000  65.8270000  73.4870000 127.3790000
  65.0790000  74.6180000 128.0530000  39.5200000  48.2170000 124.4130000
  38.9880000  48.4580000 125.1710000  40.0040000  47.4410000 124.6950000
  86.6750000  43.4920000 141.3930000  86.4040000  43.1900000 142.2600000
  86.1290000  44.2600000 141.2260000  76.1470000  62.2060000 142.2420000
  75.7970000  62.9930000 142.6580000  76.4450000  62.5020000 141.3810000
  57.3370000  84.1120000 134.3980000  57.9780000  83.7150000 134.9880000
  56.8690000  83.3680000 134.0180000  54.5560000  75.3360000 130.0820000
  55.4700000  75.4970000 129.8460000  54.0510000  75.8430000 129.4460000
  75.1040000  85.0710000 158.6090000  75.0930000  85.9900000 158.8750000
  75.5300000  84.6160000 159.3350000  67.3800000  38.3630000 124.1930000
  68.0390000  38.3300000 123.5000000  67.8870000  38.4180000 125.0040000
  54.8970000  44.4590000 136.7430000  54.9100000  45.1130000 137.4410000
  54.2090000  43.8450000 137.0020000  50.4930000  69.2460000 135.9960000
  51.0920000  69.6040000 135.3400000  51.0110000  69.2120000 136.8010000
  86.0990000  42.5620000 130.0130000  85.5890000  42.0430000 130.6340000
  85.4730000  42.8050000 129.3310000  36.4770000  55.3860000 131.0380000
  35.5330000  55.2890000 130.9110000  36.8080000  54.4890000 131.0680000
  83.8190000  35.2490000 161.1750000  83.5120000  34.5190000 160.6380000
  84.4280000  35.7240000 160.6090000  61.2300000  81.9140000 144.1960000
  60.6690000  81.2220000 144.5460000  61.1930000  82.6090000 144.8530000
  70.6730000  38.5070000 161.1160000  69.8220000  38.8990000 161.3120000
  70.7070000  37.7230000 161.6640000  84.8020000  69.2030000 123.6010000
  83.8740000  68.9930000 123.5000000  84.8880000  69.4810000 124.5130000
  36.8410000  81.6160000 139.8620000  36.5890000  82.4090000 139.3890000
  37.5150000  81.9080000 140.4770000  65.3280000  73.6690000 137.4330000
  64.6900000  73.1940000 136.9010000  65.3260000  74.5570000 137.0740000
  82.8340000  40.5110000 153.7290000  82.5780000  39.5890000 153.7440000
  82.1250000  40.9500000 153.2590000  62.1520000  41.3150000 152.1080000
  62.7520000  40.5850000 152.2590000  62.7080000  42.0180000 151.7720000
  57.2610000  68.0580000 135.2790000  56.8310000  68.0490000 134.4240000
  56.5830000  68.3590000 135.8850000  78.7400000  73.1390000 150.1210000
  78.4670000  73.7830000 149.4680000  79.3220000  73.6230000 150.7070000
  56.1360000  55.7800000 125.7430000  56.5170000  56.6510000 125.8480000
  56.4170000  55.2980000 126.5210000  31.0000000  70.7230000 136.8890000
  31.0720000  70.7030000 137.8430000  31.9040000  70.6590000 136.5780000
  44.0170000  42.4320000 148.7300000  43.6440000  43.3070000 148.8340000
  44.8960000  42.5850000 148.3820000  55.2230000  80.8990000 140.7680000
  54.5540000  81.4020000 141.2310000  55.9570000  80.8540000 141.3820000
  36.0550000  88.2870000 132.7130000  36.5370000  88.3660000 131.8900000
  36.3910000  89.0000000 133.2570000  35.8810000  42.7380000 125.9860000
  35.8140000  43.4930000 125.4030000  35.9910000  43.1180000 126.8580000
  75.4120000  88.6040000 137.3490000  76.2350000  89.0000000 137.6340000
  74.7470000  89.0000000 137.9120000  85.7560000  54.5550000 123.5000000
  85.5740000  53.6150000 123.5000000  86.7120000  54.6140000 123.5000000
  72.8570000  35.1110000 137.9360000  72.5390000  35.2830000 137.0490000
  73.6870000  35.5840000 137.9890000  80.9160000  52.3090000 126.1750000
  80.0840000  52.7490000 126.3500000  81.4420000  52.4710000 126.9580000
  56.4640000  39.0110000 130.7030000  57.4140000  39.1080000 130.7630000
  56.1320000  39.9090000 130.6710000  56.4970000  67.8680000 152.2190000
  56.7180000  68.1680000 151.3370000  55.8220000  67.2030000 152.0830000
  64.9110000  50.3700000 139.2860000  65.2750000  49.5020000 139.1130000
  63.9690000  50.2220000 139.3740000  63.3190000  54.0800000 153.8070000
  62.3660000  54.0860000 153.7180000  63.5970000  54.9250000 153.4520000
  62.2630000  37.8450000 123.5000000  61.3510000  37.5540000 123.5120000
  62.7730000  37.0360000 123.5600000  78.8270000  74.8010000 133.5220000
  78.7180000  75.6680000 133.9130000  78.0170000  74.3380000 133.7350000
  38.2830000  80.2470000 143.1690000  37.3850000  80.4090000 142.8790000
  38.3740000  79.2940000 143.1450000  73.5010000  49.1930000 131.9410000
  74.0490000  48.4410000 131.7210000  72.6060000  48.8540000 131.9170000
  58.2600000  31.1670000 152.7530000  59.1700000  31.3600000 152.9800000
  58.2790000  31.0000000 151.8100000  66.4910000  57.4960000 136.9800000
  65.5440000  57.3680000 137.0310000  66.6250000  58.4040000 137.2530000
  31.0400000  56.9120000 132.0120000  31.0000000  57.8130000 131.6930000
  31.8120000  56.5400000 131.5840000  86.4570000  83.2860000 132.7520000
  85.6760000  83.8370000 132.7730000  86.6070000  83.0470000 133.6670000
  74.0110000  56.2270000 145.2540000  74.4980000  57.0430000 145.3640000
  73.1180000  56.4420000 145.5230000  84.2860000  33.4980000 143.3470000
  84.6320000  33.9020000 144.1420000  83.3770000  33.2860000 143.5610000
  88.1350000  82.7250000 156.6670000  87.6250000  82.8850000 157.4610000
  89.0000000  82.4660000 156.9860000  52.1220000  58.1820000 163.9620000
  51.9870000  59.1290000 164.0000000  52.1570000  57.9820000 163.0270000
  79.6520000  43.1440000 161.0970000  78.8200000  43.3430000 161.5260000
  79.6640000  42.1890000 161.0270000  75.4680000  45.7130000 130.7870000
  74.8940000  46.4260000 130.5060000  74.8900000  45.1110000 131.2580000
  84.7270000  54.1630000 150.8550000  83.8140000  54.4200000 150.7270000
  85.1170000  54.2210000 149.9820000  43.9350000  52.3190000 142.1290000
  43.0170000  52.0590000 142.1900000  43.9150000  53.2760000 142.1380000
  57.7810000  31.2090000 137.4510000  58.0980000  32.0660000 137.1670000
  58.3100000  31.0000000 138.2220000  60.7820000  33.0280000 155.5440000
  59.9460000  32.5620000 155.5500000  60.5400000  33.9540000 155.5540000
  78.4470000  88.9170000 162.6830000  78.2920000  88.2620000 163.3620000
  77.6060000  89.0000000 162.2330000  62.5020000  60.7390000 157.8140000
  63.2290000  60.4210000 157.2790000  62.8570000  60.7810000 158.7020000
  42.3740000  36.9550000 140.0870000  43.2840000  37.1870000 140.2690000
  42.3910000  36.0080000 139.9460000  50.3450000  49.9060000 163.9960000
  50.9240000  50.6680000 164.0000000  50.9380000  49.1540000 163.9950000
  61.4950000  39.3780000 140.4290000  62.3950000  39.3350000 140.1070000
  61.5830000  39.5350000 141.3690000  69.3570000  52.2590000 132.4870000
  70.2500000  52.5310000 132.2770000  68.9200000  52.1930000 131.6370000
  67.0300000  68.9910000 128.8390000  67.0950000  69.9410000 128.7390000
  66.1030000  68.7980000 128.6960000  38.4980000  35.1000000 127.2900000
  37.8460000  34.9840000 127.9810000  38.5420000  36.0470000 127.1570000
  39.1110000  87.5630000 125.3330000  38.8470000  87.8940000 126.1910000
  38.3480000  87.0770000 125.0190000  59.1250000  80.0810000 158.7800000
  59.6350000  79.4420000 159.2770000  59.1540000  80.8780000 159.3110000
  59.2500000  55.8590000 139.8490000  58.4580000  55.5920000 139.3820000
  58.9950000  55.8620000 140.7720000  63.1900000  60.0690000 129.5790000
  62.7950000  60.4190000 130.3780000  63.3660000  60.8410000 129.0410000
  36.1940000  33.0520000 133.2410000  36.8010000  32.3700000 133.5290000
  36.2000000  32.9910000 132.2860000  79.8270000  82.2250000 158.0590000
  80.7280000  82.5190000 157.9250000  79.8560000  81.2810000 157.9040000
  68.6420000  82.4680000 155.7350000  67.8750000  82.7240000 155.2240000
  68.9760000  81.6870000 155.2930000  88.0840000  88.7220000 163.9730000
  89.0000000  89.0000000 163.9700000  88.1230000  87.7660000 164.0000000
  35.4580000  54.1890000 162.4250000  36.4020000  54.3140000 162.3280000
  35.3480000  53.2410000 162.5070000  53.5580000  56.0020000 144.3690000
  52.6010000  55.9790000 144.3700000  53.7760000  56.9340000 144.3670000
  56.7730000  31.0330000 163.9990000  55.8160000  31.0000000 163.9970000
  56.9810000  31.9680000 164.0000000  49.5050000  74.9120000 130.4370000
  49.5250000  73.9580000 130.3610000  50.4080000  75.1560000 130.6400000
  81.5260000  70.8290000 139.3260000  81.5260000  70.3480000 140.1530000
  81.0630000  70.2550000 138.7140000  52.3370000  46.5470000 137.7470000
  52.5940000  45.7240000 138.1630000  52.2670000  47.1700000 138.4710000
  47.1140000  31.8600000 145.4050000  46.5590000  32.4410000 144.8850000
  47.0100000  31.0000000 144.9970000  35.5590000  61.2240000 152.8840000
  35.6960000  61.2620000 153.8300000  35.8650000  62.0730000 152.5630000
  45.6160000  83.5010000 157.5650000  45.2810000  84.0000000 158.3100000
  44.8940000  83.4970000 156.9350000  56.1250000  71.9630000 148.3150000
  56.9490000  71.8160000 147.8520000  56.3880000  72.1870000 149.2080000
  32.9920000  65.8800000 153.1610000  32.6250000  66.3440000 152.4090000
  33.4140000  66.5630000 153.6820000  63.0530000  40.7760000 130.9230000
  63.7850000  41.0990000 131.4470000  62.7310000  41.5500000 130.4590000
  65.0680000  53.7260000 126.4780000  64.8980000  54.5430000 126.9470000
  65.1210000  53.9840000 125.5580000  60.1340000  59.9890000 159.6960000
  60.6630000  59.5560000 159.0260000  59.7560000  59.2720000 160.2050000
  46.1200000  34.6080000 159.4510000  46.5460000  34.8290000 160.2790000
  45.5090000  35.3290000 159.2950000  55.2560000  42.9510000 129.5230000
  54.3750000  42.6770000 129.7780000  55.8020000  42.1800000 129.6800000
  80.0660000  78.9590000 129.3690000  80.8390000  78.4690000 129.6480000
  79.3260000  78.4190000 129.6490000  36.7770000  78.9480000 154.0500000
  36.9240000  78.1190000 153.5960000  35.8460000  78.9380000 154.2740000
  47.2040000  46.6350000 138.6950000  46.2630000  46.7960000 138.7630000
  47.3760000  45.9460000 139.3370000  77.9570000  49.9820000 155.7650000
  77.1010000  49.5680000 155.6640000  77.7610000  50.9090000 155.9010000
  51.3700000  41.7730000 157.2420000  50.9120000  41.6740000 158.0770000
  51.5290000  42.7140000 157.1670000  46.6400000  55.6540000 123.7450000
  47.4220000  56.1490000 123.5000000  46.8570000  54.7450000 123.5380000
  57.8910000  41.1300000 149.6650000  57.6100000  41.3550000 150.5520000
  57.0920000  40.8330000 149.2280000  75.5080000  68.5540000 126.9390000
  74.9640000  67.7660000 126.9380000  75.2730000  69.0060000 127.7500000
  51.6880000  71.1100000 145.3550000  51.0600000  70.7540000 145.9840000
  52.3230000  71.5840000 145.8920000  86.4130000  40.5090000 141.6640000
  87.1160000  40.7300000 142.2740000  86.5890000  41.0440000 140.8900000
  60.3300000  47.5330000 143.3910000  60.8100000  48.3490000 143.5290000
  61.0120000  46.8670000 143.2970000  47.1310000  40.8570000 153.7460000
  46.8000000  41.0820000 154.6160000  46.7240000  41.4980000 153.1620000
  55.0120000  37.6080000 138.2090000  55.7060000  38.2470000 138.0530000
  54.3470000  38.0900000 138.7010000  67.4760000  71.4030000 154.3600000
  66.7500000  70.9490000 154.7880000  67.5190000  71.0150000 153.4860000
  70.3000000  82.7070000 141.9480000  69.7830000  82.4540000 142.7120000
  70.8680000  83.4090000 142.2650000  33.3730000  78.5220000 158.8870000
  33.8340000  77.7170000 159.1220000  34.0560000  79.1940000 158.8740000
  88.3190000  38.4610000 163.9980000  87.4970000  37.9710000 163.9950000
  89.0000000  37.7880000 164.0000000  79.8240000  37.3220000 140.0860000
  80.6370000  37.7380000 140.3710000  79.6780000  37.6620000 139.2030000
  62.8400000  88.3320000 130.1880000  63.1990000  87.6770000 129.5900000
  62.4590000  88.9970000 129.6130000  31.1630000  69.9590000 144.1110000
  31.3770000  70.8580000 144.3590000  31.0000000  70.0020000 143.1690000
  42.0990000  31.7320000 131.5870000  41.9010000  31.5720000 130.6640000
  41.6890000  31.0000000 132.0500000  46.4000000  86.3030000 134.4060000
  47.0240000  86.9850000 134.1590000  45.6140000  86.5000000 133.8950000
  40.1490000  36.3360000 137.6620000  40.4330000  35.8030000 138.4050000
  39.2250000  36.1140000 137.5470000  63.0680000  59.6360000 153.3070000
  63.9390000  59.9740000 153.5120000  63.1570000  59.2570000 152.4320000
  43.0370000  41.2060000 144.1830000  43.8270000  41.7030000 143.9710000
  43.2820000  40.6820000 144.9470000  42.1660000  49.0830000 146.8580000
  41.4100000  49.5930000 147.1460000  42.9240000  49.6010000 147.1310000
  38.2840000  80.8860000 130.0790000  38.5550000  81.2300000 129.2280000
  37.6310000  81.5110000 130.3940000  31.7310000  36.3410000 127.7380000
  32.4950000  35.7990000 127.5390000  31.0000000  35.8890000 127.3170000
  41.3220000  53.4360000 136.6340000  40.8850000  53.7630000 135.8480000
  40.8820000  53.8850000 137.3570000  57.1340000  35.5990000 161.5650000
  57.6860000  36.3340000 161.8300000  56.2890000  35.9970000 161.3550000
  37.7540000  31.0000000 155.7460000  36.8620000  31.0380000 155.4010000
  38.3130000  31.0390000 154.9700000  43.8050000  31.5110000 136.7240000
  43.3530000  31.0000000 137.3960000  44.5890000  31.0000000 136.5210000
  55.8830000  41.6160000 126.6050000  55.6020000  41.8320000 125.7160000
  55.9220000  42.4590000 127.0570000  68.8180000  38.6310000 132.8920000
  69.5870000  38.1490000 132.5890000  69.0560000  39.5520000 132.7900000
  44.8170000  37.5020000 134.3460000  44.8930000  36.5900000 134.6260000
  45.1260000  38.0110000 135.0970000  51.8360000  87.8680000 147.9330000
  51.6990000  87.3970000 147.1110000  51.9740000  88.7780000 147.6690000
  78.6670000  76.8000000 145.4630000  79.4790000  77.0960000 145.8740000
  77.9820000  77.3270000 145.8750000  33.0620000  88.2380000 131.2590000
  33.1320000  87.5870000 130.5620000  32.6570000  88.9970000 130.8390000
  47.8430000  48.3750000 163.6190000  48.7340000  48.0260000 163.6250000
  47.9540000  49.3150000 163.4710000  31.6230000  49.2500000 141.1320000
  31.0000000  48.7060000 141.6140000  32.2530000  48.6280000 140.7670000
  81.5200000  85.3740000 147.1300000  80.7900000  84.7780000 146.9630000
  82.2860000  84.8020000 147.1980000  74.0490000  61.5660000 156.5530000
  74.8550000  61.0770000 156.3920000  73.3850000  60.8920000 156.7000000
  66.0160000  77.5910000 140.9930000  66.3730000  77.5740000 140.1050000
  66.0840000  76.6860000 141.2960000  73.3280000  63.0430000 140.7900000
  73.5330000  62.1100000 140.8480000  74.1800000  63.4780000 140.8140000
  36.2280000  82.6880000 155.0590000  36.8640000  83.0480000 155.6770000
  36.5670000  81.8180000 154.8460000  85.9150000  64.7400000 159.9430000
  86.8180000  64.5350000 159.7010000  85.7360000  65.5770000 159.5140000
  41.1540000  73.1120000 137.4200000  40.8810000  73.7600000 136.7710000
  40.3360000  72.8040000 137.8110000  73.0120000  34.7390000 163.8970000
  72.4040000  34.8770000 163.1720000  73.4570000  35.5810000 164.0000000
  86.6240000  52.8190000 140.1730000  87.0010000  52.5300000 141.0040000
  86.3950000  53.7370000 140.3200000  80.3550000  88.4850000 150.1720000
  81.1620000  89.0000000 150.1820000  79.8620000  88.7970000 150.9310000
  37.3970000  43.1150000 150.1240000  37.3890000  43.7870000 149.4420000
  36.5480000  43.2040000 150.5580000  56.2620000  45.0290000 131.7540000
  56.4370000  45.9290000 131.4800000  55.3440000  45.0360000 132.0280000
  88.9990000  48.5410000 160.1050000  88.1090000  48.3000000 159.8510000
  88.8840000  49.1740000 160.8130000  39.5220000  55.9950000 138.6870000
  39.4860000  56.9360000 138.5180000  40.4440000  55.8210000 138.8790000
  45.0880000  57.6350000 141.9070000  44.3470000  57.4530000 142.4830000
  45.4900000  56.7790000 141.7550000  31.6850000  54.3850000 130.3220000
  31.2810000  54.9480000 129.6620000  31.0000000  54.2540000 130.9780000
  88.5510000  31.9960000 123.5000000  88.2460000  31.5320000 124.2800000
  88.2380000  32.8930000 123.6160000  70.6260000  56.7850000 131.9200000
  70.4280000  57.4560000 132.5730000  71.4370000  57.0830000 131.5080000
  51.5000000  43.3970000 163.9810000  51.8350000  42.5000000 164.0000000
  50.5480000  43.2980000 163.9690000  42.9770000  73.2940000 161.3620000
  42.0480000  73.5220000 161.3250000  42.9870000  72.3390000 161.4360000
  77.3060000  44.1960000 125.9450000  76.3680000  44.0060000 125.9470000
  77.7250000  43.3360000 125.9450000  33.7720000  50.1980000 144.3330000
  33.8160000  49.6250000 145.0980000  34.1200000  49.6670000 143.6160000
  79.1340000  61.1210000 148.5680000  79.5820000  60.4150000 148.1040000
  79.8190000  61.7670000 148.7410000  43.8530000  78.4770000 136.6790000
  44.5040000  77.8400000 136.3850000  44.3690000  79.1900000 137.0560000
  46.2900000  53.0220000 143.6230000  45.9370000  52.2220000 144.0100000
  47.2290000  52.8520000 143.5340000  56.1890000  75.4130000 134.2770000
  55.7310000  75.5060000 133.4420000  56.3330000  76.3120000 134.5730000
  73.3010000  31.0600000 155.5930000  73.4670000  31.9440000 155.9190000
  73.1630000  31.1730000 154.6520000  74.4860000  69.9710000 153.8730000
  75.3580000  70.3560000 153.9660000  74.4490000  69.6770000 152.9630000
  75.7440000  72.9020000 143.8590000  76.6640000  72.8250000 143.6050000
  75.7570000  72.8880000 144.8160000  35.4430000  57.5610000 158.1950000
  35.5820000  58.5000000 158.3140000  35.6750000  57.3970000 157.2810000
  57.1530000  72.3600000 124.3410000  56.9450000  73.0820000 124.9340000
  57.3270000  72.7820000 123.5000000  31.5450000  67.4510000 160.9770000
  32.4430000  67.1530000 161.1250000  31.0000000  66.7060000 161.2310000
  79.5200000  71.2000000 123.6710000  79.6040000  71.0620000 124.6140000
  78.5800000  71.1350000 123.5010000  48.8490000  41.2160000 131.5500000
  48.7930000  40.3860000 131.0770000  48.2340000  41.7930000 131.0960000
  33.3150000  80.0120000 124.3490000  32.3600000  79.9470000 124.3500000
  33.6170000  79.1030000 124.3460000  54.0950000  46.0070000 153.7940000
  54.3290000  45.8070000 154.7000000  54.8290000  45.6740000 153.2770000
  71.4630000  70.7140000 152.9120000  71.9040000  70.3180000 152.1610000
  71.0500000  71.5030000 152.5590000  77.9600000  59.3110000 136.9960000
  77.0490000  59.5680000 136.8530000  77.9580000  58.3590000 136.8980000
  46.8810000  60.6670000 151.6360000  47.0440000  59.7720000 151.3390000
  47.7500000  61.0630000 151.6940000  36.2470000  36.1470000 139.4140000
  36.8630000  36.0580000 138.6870000  35.8180000  36.9890000 139.2620000
  64.9550000  55.7660000 129.7020000  64.0790000  55.3810000 129.6770000
  65.5350000  55.0610000 129.4120000  59.1350000  74.6670000 131.0620000
  58.2370000  74.9140000 130.8450000  59.6630000  75.0240000 130.3470000
  45.3450000  55.7570000 147.2700000  45.5530000  56.6910000 147.3030000
  44.3880000  55.7250000 147.2590000  56.4230000  59.0050000 147.8050000
  55.8450000  58.3730000 147.3780000  56.9510000  59.3660000 147.0920000
  85.0770000  77.8290000 124.2510000  85.4300000  78.4550000 124.8830000
  84.1280000  77.9550000 124.2920000  46.0740000  33.1450000 134.6890000
  45.5060000  33.0670000 135.4550000  46.3670000  34.0570000 134.6990000
  69.4760000  74.4290000 154.8760000  69.8640000  74.0440000 155.6620000
  68.6090000  74.7220000 155.1560000  86.4790000  81.1760000 130.1570000
  86.7160000  81.4530000 129.2720000  86.3920000  80.2240000 130.0950000
  51.2910000  71.6780000 155.3350000  50.4160000  72.0530000 155.4270000
  51.6940000  72.1820000 154.6270000  59.9140000  53.8830000 153.2740000
  59.8500000  53.3440000 154.0630000  59.6970000  53.2860000 152.5580000
  73.1050000  68.4280000 140.9440000  72.8520000  68.7810000 140.0910000
  73.8620000  67.8720000 140.7580000  49.2200000  79.5600000 124.9940000
  48.8540000  78.7160000 124.7270000  49.9860000  79.3340000 125.5220000
  31.5390000  65.9830000 150.0000000  31.0000000  66.7670000 149.8990000
  31.0000000  65.3870000 150.5220000  37.1180000  59.8220000 151.0440000
  36.6040000  60.3940000 150.4740000  36.5020000  59.1430000 151.3220000
  74.8360000  68.1750000 163.9980000  75.1240000  69.0880000 163.9900000
  75.6480000  67.6670000 164.0000000  51.8870000  65.3360000 146.1970000
  51.0940000  65.1710000 146.7070000  51.6400000  66.0330000 145.5890000
  88.5110000  56.9850000 125.4650000  89.0000000  57.7550000 125.7540000
  87.6480000  57.0840000 125.8680000  70.8440000  89.0000000 164.0000000
  70.5450000  88.9730000 163.0910000  71.7120000  88.5980000 163.9790000
  47.7090000  33.4330000 140.5160000  47.6550000  34.1160000 139.8470000
  48.6470000  33.2720000 140.6200000  70.3840000  31.9030000 149.0530000
  71.2170000  32.3640000 149.1480000  70.2200000  31.5250000 149.9170000
  82.6800000  75.5990000 146.7350000  81.8180000  75.8350000 146.3930000
  82.4970000  74.9700000 147.4340000  78.0940000  41.9490000 152.5330000
  78.1340000  42.6210000 153.2130000  77.9450000  41.1330000 153.0100000
  86.1400000  75.0260000 134.6080000  86.0160000  75.0380000 133.6590000
  85.2520000  75.0150000 134.9660000  62.1910000  35.3570000 143.1660000
  61.2450000  35.2650000 143.2740000  62.2970000  36.1640000 142.6600000
  88.9460000  66.0030000 151.6190000  88.9900000  65.1630000 151.1630000
  89.0000000  66.6570000 150.9210000  84.1630000  53.1450000 133.0420000
  83.7830000  53.4200000 133.8760000  83.4430000  52.7120000 132.5820000
  31.5640000  85.2360000 146.3430000  31.0030000  85.8690000 146.7900000
  31.0000000  84.4750000 146.2000000  42.7100000  77.1330000 128.4790000
  43.5390000  77.5930000 128.6050000  42.1530000  77.4400000 129.1950000
  66.5260000  63.1370000 142.1240000  66.0660000  62.5940000 141.4840000
  65.8730000  63.7790000 142.4070000  66.6490000  65.0490000 139.5860000
  66.1300000  65.8420000 139.7150000  67.5490000  65.3620000 139.4970000
  36.8750000  85.9050000 132.1750000  37.7770000  86.2200000 132.2150000
  36.6450000  85.9530000 131.2460000  43.4900000  31.9540000 146.2900000
  42.8070000  32.6150000 146.4060000  43.0200000  31.1200000 146.3000000
  36.5440000  53.4480000 151.9570000  36.1030000  53.4820000 151.1080000
  35.8990000  53.0550000 152.5460000  60.9170000  60.9370000 148.3170000
  61.3150000  60.3190000 147.7040000  60.3110000  61.4490000 147.7820000
  43.4770000  33.4600000 129.6690000  43.0760000  33.9380000 130.3950000
  43.2640000  33.9790000 128.8930000  62.6240000  31.1510000 128.7430000
  61.6930000  31.0000000 128.9040000  62.7210000  32.1030000 128.7670000
  67.3160000  68.2690000 155.6820000  68.0330000  68.8980000 155.6030000
  66.5840000  68.7820000 156.0240000  39.4770000  74.9740000 159.6140000
  38.7690000  75.6100000 159.5090000  40.2780000  75.4910000 159.5260000
  74.6290000  73.8190000 126.4600000  73.8150000  73.4320000 126.1390000
  74.5570000  74.7480000 126.2370000  48.7320000  74.2060000 125.3680000
  49.6750000  74.0480000 125.3210000  48.3370000  73.3460000 125.2180000
  64.1690000  52.3870000 129.4390000  64.7240000  52.7860000 128.7690000
  63.7130000  51.6790000 128.9820000  63.4660000  37.5290000 144.6710000
  63.0920000  38.1120000 144.0110000  62.7250000  37.0040000 144.9760000
  44.8940000  71.6500000 130.7870000  44.1620000  71.9230000 130.2340000
  44.5720000  70.8750000 131.2460000  31.3770000  50.2960000 155.0340000
  31.0000000  50.0200000 155.8700000  31.0430000  51.1840000 154.9020000
  36.7040000  36.2360000 158.4230000  36.9150000  37.0690000 158.0020000
  36.8650000  36.3890000 159.3540000  59.2450000  42.3340000 155.8020000
  59.4650000  41.4030000 155.8110000  60.0800000  42.7790000 155.9500000
  56.4400000  70.9000000 141.5610000  57.1950000  70.3990000 141.8700000
  56.3740000  70.6830000 140.6300000  49.6960000  48.5200000 125.8930000
  49.6550000  47.5650000 125.8430000  50.6060000  48.7100000 126.1200000
  86.9410000  41.6630000 149.0700000  86.9090000  41.0800000 149.8280000
  86.7020000  41.1060000 148.3290000  65.8370000  74.4240000 145.6700000
  66.4100000  75.1890000 145.7290000  64.9580000  74.7710000 145.8220000
  56.7870000  42.1060000 158.0830000  56.2810000  42.0150000 158.8900000
  57.1790000  42.9780000 158.1420000  70.1640000  82.1560000 125.3400000
  69.4970000  81.6660000 125.8200000  69.9380000  83.0750000 125.4860000
  53.6460000  56.2990000 126.2950000  54.0950000  57.1410000 126.2270000
  53.4290000  56.0690000 125.3910000  48.5340000  31.0120000 141.7270000
  48.5160000  31.0000000 142.6840000  47.6120000  31.0050000 141.4700000
  47.2910000  88.9900000 139.7130000  46.8570000  88.5610000 140.4500000
  48.2260000  88.8740000 139.8860000  46.9830000  45.7780000 130.7000000
  47.6240000  46.1130000 130.0740000  47.2790000  46.1110000 131.5480000
  64.8910000  52.6680000 164.0000000  63.9480000  52.5080000 163.9990000
  65.2830000  51.7940000 164.0000000  45.5710000  69.1470000 136.2770000
  44.8200000  68.5690000 136.4070000  46.1700000  68.9260000 136.9910000
  37.9610000  44.6720000 132.7250000  38.0780000  44.6800000 131.7750000
  38.2330000  43.7940000 132.9930000  88.4160000  77.8990000 137.9480000
  88.9980000  77.2540000 138.3500000  88.9980000  78.4620000 137.4380000
  45.9420000  64.5560000 151.3020000  45.2980000  64.0570000 150.8000000
  46.2290000  63.9540000 151.9890000  58.1410000  53.7390000 136.6550000
  58.9450000  54.1640000 136.3580000  57.4690000  54.4170000 136.5790000
  44.0160000  77.3030000 125.3110000  44.4430000  76.4590000 125.1640000
  44.4430000  77.6550000 126.0930000  69.8090000  61.2120000 123.5330000
  70.5990000  61.7510000 123.5000000  69.5820000  61.1750000 124.4620000
  53.9410000  84.2650000 142.4460000  53.0670000  84.6490000 142.3750000
  54.5310000  85.0180000 142.4950000  88.6720000  43.9250000 145.0400000
  88.1140000  44.5780000 145.4620000  88.2770000  43.7910000 144.1780000
  67.5730000  64.1620000 144.4580000  67.6500000  65.1150000 144.4150000
  66.7710000  64.0080000 144.9580000  74.2220000  66.9290000 129.4670000
  74.4680000  66.0130000 129.5890000  73.3920000  67.0200000 129.9360000
  76.8800000  83.5660000 137.1500000  77.5160000  84.0250000 137.6980000
  77.4070000  82.9600000 136.6280000  43.1310000  69.5380000 124.1060000
  43.9560000  69.5020000 123.6230000  42.4810000  69.1810000 123.5000000
  63.7260000  55.6160000 156.7690000  63.5460000  54.8200000 157.2680000
  63.3580000  55.4440000 155.9010000  61.0840000  76.8440000 133.0770000
  60.3250000  77.4260000 133.0820000  61.8380000  77.4330000 133.0510000
  83.7100000  58.4740000 135.3790000  83.5270000  59.4120000 135.4140000
  84.6660000  58.4160000 135.3680000  33.8320000  86.7370000 158.8550000
  33.3250000  86.5910000 159.6540000  34.6840000  86.3410000 159.0360000
  51.9020000  72.0570000 148.6240000  52.8250000  72.2920000 148.5260000
  51.9000000  71.1010000 148.6620000  35.0290000  62.7120000 136.6960000
  34.1100000  62.4830000 136.5570000  35.0410000  63.1510000 137.5470000
  77.1440000  64.3330000 130.4740000  76.8670000  65.2470000 130.5260000
  76.3290000  63.8320000 130.5110000  76.4140000  40.2290000 150.5320000
  76.4830000  40.8500000 149.8070000  76.0490000  40.7440000 151.2530000
  79.1550000  82.7480000 154.8510000  79.7360000  82.0440000 154.5620000
  79.7300000  83.5060000 154.9530000  59.8750000  86.6060000 150.4650000
  60.4350000  86.0060000 150.9570000  60.1790000  86.5310000 149.5600000
  87.3920000  72.2600000 160.8240000  86.9420000  72.6700000 160.0850000
  87.5320000  72.9750000 161.4460000  78.5500000  68.7930000 124.8520000
  77.6430000  68.7330000 125.1490000  79.0420000  68.2500000 125.4690000
  35.3950000  49.2300000 134.5170000  34.5940000  49.0640000 135.0140000
  35.9840000  49.6490000 135.1440000  80.2290000  86.2540000 131.9460000
  79.8980000  87.1140000 131.6860000  79.5020000  85.8520000 132.4230000
  77.3930000  76.8460000 129.9420000  77.0030000  75.9930000 129.7520000
  76.6510000  77.3980000 130.1910000  60.8420000  34.3090000 124.1350000
  61.2150000  35.0630000 123.6800000  60.2360000  33.9220000 123.5020000
  32.3930000  31.6860000 153.1430000  32.2610000  32.4100000 153.7550000
  32.8070000  31.0000000 153.6680000  45.7590000  58.6680000 126.6340000
  46.1670000  57.9850000 126.1020000  45.9290000  59.4800000 126.1550000
  86.0280000  76.2460000 156.7190000  86.3540000  77.1050000 156.4520000
  85.8550000  75.7890000 155.8950000  50.9130000  79.5020000 134.9280000
  51.8310000  79.4930000 135.1980000  50.4210000  79.4660000 135.7490000
  31.3920000  48.9840000 132.6920000  31.0000000  48.5900000 133.4710000
  31.0000000  49.8570000 132.6410000  71.0720000  79.7050000 137.3390000
  70.3610000  79.1540000 137.0130000  71.0040000  80.5130000 136.8280000
  31.8440000  55.0180000 150.7400000  31.0000000  55.2500000 150.3520000
  31.6300000  54.3630000 151.4040000  81.1160000  61.2700000 137.8360000
  81.6510000  61.5010000 137.0770000  81.4290000  61.8450000 138.5350000
  52.6880000  50.0260000 140.7620000  52.4950000  50.6910000 141.4220000
  53.3960000  50.4040000 140.2390000  43.3300000  73.7010000 163.8040000
  42.4500000  74.0570000 163.9260000  43.9140000  74.4340000 164.0000000
  87.8600000  69.8010000 145.5970000  87.3430000  69.8800000 144.7950000
  87.9710000  68.8580000 145.7190000  79.8520000  54.9750000 137.6080000
  79.4400000  55.8170000 137.4170000  80.6700000  54.9890000 137.1110000
  83.2090000  83.5930000 162.0480000  82.4340000  84.1520000 161.9930000
  83.3560000  83.4770000 162.9870000  31.3080000  70.8060000 133.5160000
  31.0000000  69.9860000 133.9030000  31.0020000  71.4850000 134.1170000
  78.8380000  57.7680000 130.5820000  78.9060000  56.8150000 130.6260000
  79.7450000  58.0730000 130.5750000  44.9430000  77.7640000 153.5100000
  44.8360000  78.6480000 153.8590000  45.2700000  77.8960000 152.6190000
  43.6440000  61.9130000 144.8450000  43.2000000  62.5360000 144.2700000
  42.9570000  61.5980000 145.4330000  63.6550000  59.7790000 146.3020000
  63.3230000  59.4970000 145.4490000  64.3820000  60.3660000 146.0940000
  73.3430000  76.3120000 147.0360000  72.9420000  75.4820000 146.7780000
  73.3620000  76.2820000 147.9920000  80.3400000  48.8380000 155.3480000
  80.8980000  48.1260000 155.6590000  80.4070000  49.5100000 156.0270000
  38.8630000  58.4080000 149.4010000  38.2200000  58.7110000 148.7610000
  39.5000000  59.1210000 149.4570000  41.7070000  34.6210000 133.1400000
  41.4650000  33.7090000 132.9800000  40.8700000  35.0810000 133.2150000
  42.0330000  56.3140000 123.7040000  42.1320000  55.8350000 124.5260000
  42.6120000  57.0710000 123.7950000  31.1830000  54.6020000 142.9800000
  31.0000000  55.2920000 142.3420000  31.0000000  55.0050000 143.8290000
  84.0320000  66.1620000 124.4550000  84.0090000  66.1050000 123.5000000
  84.8290000  66.6580000 124.6460000  46.6950000  35.0910000 163.9410000
  45.7470000  35.2080000 164.0000000  46.8780000  35.0800000 163.0010000
  40.9690000  50.2260000 141.5100000  41.2870000  50.3930000 140.6230000
  40.1860000  50.7710000 141.5910000  65.9410000  57.7450000 145.2620000
  65.5600000  58.5300000 144.8690000  65.3600000  57.5370000 145.9940000
  55.4610000  88.9810000 132.3320000  56.1640000  89.0000000 131.6820000
  54.6550000  88.9990000 131.8150000  59.0830000  66.9420000 137.9780000
  58.6080000  67.7240000 137.6980000  59.9620000  67.2590000 138.1900000
  47.4470000  62.7010000 149.7700000  47.9730000  63.3640000 150.2170000
  46.9400000  63.1930000 149.1240000  34.8770000  58.4540000 130.2730000
  34.6480000  58.7990000 129.4100000  34.0440000  58.4120000 130.7440000
  55.3870000  68.6500000 125.2800000  55.4720000  67.7330000 125.5400000
  54.4460000  68.7780000 125.1550000  79.2780000  67.5010000 162.8200000
  79.6120000  68.2760000 162.3690000  79.1410000  67.7900000 163.7230000
  85.2200000  42.5280000 125.8960000  86.1330000  42.7930000 126.0120000
  85.0720000  41.8720000 126.5780000  38.5140000  83.8870000 158.5050000
  37.5880000  84.0670000 158.3440000  38.6520000  83.0080000 158.1520000
  33.1810000  57.9120000 144.5870000  33.5150000  57.1430000 145.0490000
  33.3750000  58.6460000 145.1700000  46.8860000  79.5480000 136.7710000
  46.9470000  78.5970000 136.6840000  47.7950000  79.8410000 136.8510000
  79.0340000  66.7300000 135.2150000  78.5360000  67.3990000 135.6840000
  78.3970000  66.0390000 135.0350000  74.1070000  71.0360000 133.0240000
  74.2690000  70.0930000 133.0050000  73.1930000  71.1170000 133.2990000
  80.2550000  52.3340000 156.8280000  79.4630000  52.7020000 156.4370000
  80.7670000  53.0970000 157.0970000  55.7370000  88.2850000 158.9550000
  56.3690000  89.0000000 159.0290000  55.0090000  88.6580000 158.4580000
  79.3770000  54.8390000 124.3450000  78.7880000  54.2970000 124.8700000
  78.9340000  54.9280000 123.5010000  42.9200000  60.4160000 126.4820000
  42.4750000  61.1330000 126.0300000  43.5180000  60.0540000 125.8270000
  37.9950000  59.8210000 159.7000000  37.8060000  60.7480000 159.8440000
  37.5930000  59.3760000 160.4470000  33.2340000  65.6900000 143.6390000
  33.4650000  66.2980000 142.9370000  32.8980000  64.9160000 143.1860000
  59.0410000  81.2620000 125.8890000  59.5250000  80.6700000 126.4650000
  58.1530000  80.9050000 125.8680000  68.2360000  70.1020000 163.4630000
  69.0140000  70.2580000 164.0000000  67.5080000  70.4160000 164.0000000
  37.7070000  48.8420000 146.7990000  37.6030000  47.9080000 146.9790000
  38.1140000  49.1950000 147.5910000  66.5460000  42.1990000 150.1700000
  66.1970000  42.7950000 149.5070000  65.7760000  41.7400000 150.5090000
  77.9140000  51.6630000 145.4690000  78.6430000  51.9120000 144.9020000
  78.2700000  51.7230000 146.3570000  62.8350000  42.5750000 135.4820000
  62.9820000  41.6340000 135.3920000  61.8820000  42.6700000 135.4820000
  79.5200000  56.3230000 162.9190000  78.6750000  55.8750000 162.9580000
  80.0470000  55.7910000 162.3230000  66.3920000  56.2680000 151.7160000
  65.4770000  56.1810000 151.9840000  66.7480000  55.3820000 151.7850000
  65.8690000  69.9980000 136.8430000  65.3590000  69.7900000 137.6260000
  65.5110000  70.8310000 136.5370000  44.3790000  57.8790000 151.9370000
  44.9300000  57.1640000 151.6180000  43.8670000  57.4890000 152.6460000
  67.7380000  57.8730000 147.5220000  67.1910000  57.0970000 147.6450000
  67.1180000  58.6010000 147.4880000  65.3960000  43.9520000 163.9860000
  64.9350000  44.7900000 163.9690000  66.3230000  44.1880000 164.0000000
  52.3020000  79.0750000 132.6700000  51.7480000  78.5940000 132.0560000
  51.9970000  79.9800000 132.6110000  51.2590000  54.8560000 160.6890000
  51.4850000  55.7850000 160.6690000  50.6920000  54.7630000 161.4550000
  42.1900000  73.1030000 150.6390000  41.5080000  72.8760000 150.0070000
  41.8270000  72.8470000 151.4870000  63.0360000  76.6410000 141.4650000
  62.9720000  77.3230000 142.1330000  62.1550000  76.2710000 141.4150000
  89.0000000  69.3710000 141.9410000  88.5210000  70.1340000 141.6190000
  88.8940000  69.4050000 142.8920000  60.8810000  55.1690000 142.3020000
  61.3570000  54.6280000 142.9310000  61.1900000  54.8690000 141.4460000
  46.0750000  55.7140000 135.6920000  46.5200000  55.4520000 134.8860000
  45.4270000  56.3600000 135.4090000  31.3620000  42.6940000 161.4710000
  32.2800000  42.6340000 161.7330000  31.2210000  41.9280000 160.9130000
  60.5020000  83.0690000 147.4060000  59.5640000  82.8980000 147.3260000
  60.9040000  82.2000000 147.4200000  55.9940000  83.3880000 136.4730000
  55.2510000  83.9660000 136.6450000  55.6300000  82.5040000 136.5380000
  77.0150000  40.3640000 139.5090000  76.7810000  40.7460000 140.3550000
  77.3270000  41.1060000 138.9890000  54.7720000  88.5040000 123.5270000
  54.6520000  88.2900000 124.4520000  55.5910000  89.0000000 123.5000000
  49.4110000  65.3880000 135.0490000  50.1960000  65.3650000 134.5020000
  49.6270000  64.8390000 135.8030000  53.1400000  42.6740000 154.7020000
  53.1010000  43.6290000 154.7380000  53.7730000  42.4340000 155.3790000
  84.1490000  75.4420000 158.1580000  83.9200000  74.6300000 157.7060000
  84.1770000  75.2010000 159.0850000  53.3960000  64.0230000 129.1470000
  54.0060000  64.6520000 128.7620000  52.6380000  64.5500000 129.4020000
  77.3420000  66.0600000 160.0880000  78.0370000  66.1700000 160.7370000
  77.0620000  65.1500000 160.1880000  88.2000000  46.5200000 147.8670000
  88.4050000  46.3950000 148.7940000  89.0000000  46.2620000 147.4080000
  78.4260000  34.6490000 138.3460000  79.0360000  34.6170000 139.0830000
  78.1090000  33.7500000 138.2570000  65.2290000  85.2100000 124.7160000
  65.4080000  84.2710000 124.7670000  66.0940000  85.6190000 124.6980000
  47.6790000  52.2950000 163.9710000  47.9750000  53.2040000 164.0000000
  47.7880000  52.0350000 163.0560000  63.3110000  73.5470000 150.3520000
  62.9340000  73.9710000 149.5820000  63.3030000  74.2260000 151.0280000
  51.3130000  52.7860000 129.4350000  51.7430000  53.1250000 130.2200000
  51.8200000  52.0090000 129.1990000  55.1420000  43.1120000 147.5260000
  54.4310000  43.4450000 148.0740000  55.1650000  42.1720000 147.7090000
  78.3020000  38.6360000 148.5360000  77.7310000  39.3480000 148.2460000
  79.1780000  39.0220000 148.5520000  79.0160000  44.4950000 141.3270000
  79.0590000  43.5400000 141.2700000  79.3840000  44.8010000 140.4970000
  51.2270000  33.8460000 138.0070000  50.4920000  33.4320000 138.4580000
  51.8730000  34.0050000 138.6960000  48.6800000  61.7510000 136.5990000
  49.1560000  62.3860000 136.0650000  49.3410000  61.3910000 137.1900000
  38.2110000  63.6600000 146.8620000  37.7730000  64.4310000 146.5030000
  37.4970000  63.0710000 147.1080000  38.5590000  37.8760000 156.2510000
  38.6100000  36.9230000 156.1710000  39.3490000  38.1960000 155.8150000
  40.4360000  68.6520000 149.7990000  39.6140000  68.6120000 150.2880000
  40.3140000  68.0390000 149.0740000  75.0590000  78.7120000 145.3720000
  74.6890000  79.5940000 145.3290000  76.0000000  78.8520000 145.4840000
  52.9480000  68.4870000 145.0340000  53.3590000  67.7290000 144.6190000
  52.1150000  68.5900000 144.5740000  60.2420000  75.1280000 139.0100000
  60.1390000  75.5880000 139.8430000  61.1810000  74.9520000 138.9480000
  86.0910000  62.9880000 132.6300000  86.6190000  63.6200000 133.1180000
  86.7160000  62.3170000 132.3520000  41.1470000  76.6290000 147.0300000
  40.7000000  76.0550000 147.6520000  41.6560000  76.0340000 146.4780000
  81.3750000  66.5320000 163.9700000  80.7210000  65.8350000 164.0000000
  81.8450000  66.3850000 163.1490000  31.7400000  31.5850000 123.5990000
  31.0000000  31.0000000 123.7600000  32.4910000  31.0000000 123.5000000
  87.9060000  33.7870000 133.7190000  88.6180000  34.0870000 133.1550000
  87.4830000  34.5920000 134.0210000  50.3360000  88.1720000 135.8780000
  49.9890000  87.9410000 135.0160000  50.0390000  87.4670000 136.4530000
  39.3460000  73.6940000 131.7030000  39.2030000  72.7770000 131.9380000
  40.1600000  73.6890000 131.2000000  70.8150000  49.4840000 136.3600000
  71.0810000  48.9810000 135.5910000  71.1870000  50.3550000 136.2180000
  81.2460000  78.5190000 127.1790000  81.8090000  79.2810000 127.0480000
  81.8490000  77.7760000 127.2060000  69.4420000  75.3860000 145.1660000
  69.1540000  75.1870000 144.2750000  68.8660000  76.0960000 145.4520000
  45.9910000  51.7480000 131.4600000  45.0480000  51.8260000 131.6050000
  46.3810000  52.3640000 132.0790000  80.1770000  54.4170000 128.5790000
  80.2800000  54.5920000 129.5140000  79.4570000  54.9850000 128.3060000
  78.5940000  60.2720000 134.7760000  79.2410000  60.9660000 134.8990000
  78.8830000  59.8100000 133.9890000  67.2500000  69.6580000 131.7080000
  66.4420000  69.6790000 131.1950000  67.8510000  70.2310000 131.2320000
  41.9460000  67.3190000 128.5660000  41.4220000  66.5180000 128.5430000
  41.6960000  67.7920000 127.7720000  67.3910000  82.6300000 147.7660000
  66.7460000  83.3360000 147.8090000  68.1280000  83.0080000 147.2860000
  32.8750000  53.3920000 163.7770000  32.3730000  54.1760000 164.0000000
  32.6530000  53.2170000 162.8630000  34.2840000  80.8020000 144.3660000
  34.9060000  81.0750000 143.6920000  33.4440000  80.7480000 143.9090000
  80.2470000  76.5050000 163.9800000  81.1170000  76.1050000 163.9770000
  79.6430000  75.7620000 164.0000000  88.0820000  53.7820000 137.2010000
  87.6330000  53.4320000 137.9690000  89.0000000  53.8430000 137.4660000
  77.4090000  79.7770000 128.4210000  77.5210000  80.1160000 129.3090000
  78.2030000  80.0500000 127.9590000  40.0990000  76.1100000 130.3040000
  40.6910000  76.1280000 131.0560000  39.2260000  76.0220000 130.6880000
  44.4720000  84.6290000 123.5000000  43.6480000  85.1150000 123.5000000
  45.1500000  85.3060000 123.5010000  61.0520000  37.2680000 160.3240000
  60.5610000  36.6040000 159.8390000  61.8690000  36.8320000 160.5670000
  51.5410000  80.5240000 128.8220000  51.3460000  81.0860000 129.5710000
  51.2660000  81.0340000 128.0600000  58.0470000  43.5310000 130.8470000
  58.5470000  44.3280000 131.0210000  58.0070000  43.0830000 131.6920000
  36.1980000  73.3050000 158.7460000  36.9520000  73.8930000 158.7070000
  36.5680000  72.4580000 158.9970000  63.3360000  47.9980000 152.9470000
  63.6880000  47.1090000 152.9960000  62.3860000  47.8800000 152.9370000
  34.7630000  84.4640000 130.1730000  35.1460000  84.0800000 129.3850000
  34.4450000  85.3220000 129.8920000  32.0890000  60.9380000 131.8990000
  31.5700000  60.8320000 131.1020000  32.6320000  60.1510000 131.9380000
  62.6890000  69.0950000 158.1190000  62.3380000  68.8810000 158.9840000
  62.2110000  68.5220000 157.5180000  49.8670000  34.9200000 142.8170000
  50.2270000  34.0340000 142.8580000  50.5920000  35.4590000 142.4990000
  58.1530000  68.2460000 140.6990000  58.8950000  67.7190000 140.4040000
  57.5800000  68.3050000 139.9340000  56.6520000  49.6860000 148.0110000
  57.0900000  49.0670000 147.4270000  56.8390000  49.3590000 148.8910000
  60.9700000  33.5600000 138.7720000  60.0760000  33.2210000 138.7230000
  60.8650000  34.5120000 138.7950000  58.6230000  73.2800000 133.0780000
  57.8660000  73.8340000 133.2640000  58.2570000  72.4020000 132.9690000
  54.5640000  47.1870000 139.5140000  54.0360000  47.6300000 140.1780000
  54.5950000  46.2740000 139.8010000  84.9080000  46.0610000 129.2440000
  84.0200000  45.8160000 129.5050000  84.8180000  46.9450000 128.8880000
  43.3890000  34.6280000 136.6850000  42.8530000  35.0430000 137.3610000
  42.9680000  34.8750000 135.8610000  34.5110000  47.7840000 163.9650000
  35.4490000  47.5960000 163.9740000  34.0930000  46.9230000 164.0000000
  62.5930000  31.0420000 159.7590000  61.6720000  31.0640000 160.0170000
  63.0740000  31.0000000 160.5860000  59.9970000  86.1560000 146.4320000
  60.5540000  86.9210000 146.2900000  60.6050000  85.4550000 146.6670000
  51.1460000  79.2530000 163.5090000  50.4740000  79.9340000 163.5130000
  51.0620000  78.8370000 162.6500000  42.3090000  69.3510000 159.5510000
  42.8240000  69.9270000 160.1150000  42.3700000  68.4900000 159.9660000
  45.5750000  38.5520000 153.8410000  45.0220000  39.2750000 154.1390000
  46.3250000  38.5630000 154.4360000  34.8800000  55.8360000 160.3010000
  35.5850000  55.3200000 159.9090000  35.3280000  56.4550000 160.8770000
  53.0930000  77.3370000 124.1140000  53.4250000  78.0220000 124.6940000
  53.8100000  77.1730000 123.5010000  39.4060000  69.6750000 125.9040000
  40.2480000  69.2240000 125.9600000  39.5810000  70.5520000 126.2460000
  31.2220000  88.9190000 160.5280000  31.1470000  87.9830000 160.7130000
  32.0150000  88.9960000 159.9980000  40.0920000  52.1910000 139.3570000
  39.4710000  52.8720000 139.6150000  39.5940000  51.6220000 138.7700000
  56.2160000  38.4340000 163.9140000  56.1620000  38.1860000 162.9910000
  55.6140000  39.1740000 164.0000000  85.7870000  31.0000000 160.8920000
  86.5750000  31.0170000 161.4350000  85.0640000  31.0080000 161.5200000
  69.2910000  41.9210000 160.7110000  69.5300000  41.3780000 161.4620000
  69.9050000  42.6550000 160.7410000  76.1730000  50.5790000 153.5740000
  76.7200000  50.6930000 152.7970000  75.7640000  49.7210000 153.4560000
  31.8640000  51.7440000 140.8000000  31.9540000  51.5630000 139.8650000
  31.0000000  52.1490000 140.8830000  84.2780000  76.9950000 131.9170000
  85.0590000  77.4800000 132.1830000  84.5530000  76.0780000 131.9180000
  77.6360000  35.4920000 141.5740000  77.5990000  34.5780000 141.2950000
  77.7920000  35.9840000 140.7670000  33.3700000  47.4870000 132.3880000
  32.6610000  46.8710000 132.2020000  34.1390000  46.9330000 132.5280000
  70.9410000  34.3580000 151.5410000  70.4320000  34.5710000 150.7590000
  71.4010000  35.1700000 151.7570000  68.8350000  35.0100000 148.4100000
  69.0300000  35.1540000 147.4840000  68.1360000  35.6340000 148.6070000
  40.5900000  86.6490000 130.7620000  39.8070000  86.0990000 130.7530000
  41.3190000  86.0280000 130.7660000  88.5120000  77.6900000 124.2490000
  89.0000000  77.3480000 123.5000000  88.9560000  77.3210000 125.0130000
  83.9730000  65.4900000 128.3570000  83.8270000  64.5440000 128.3670000
  84.5580000  65.6350000 127.6130000  31.5800000  77.2840000 160.1130000
  31.0000000  78.0460000 160.1080000  31.0000000  76.5400000 159.9510000
  55.8670000  41.5270000 145.1400000  56.2200000  40.6430000 145.0410000
  54.9170000  41.4120000 145.0900000  88.2980000  40.0620000 124.0300000
  88.4260000  40.4320000 124.9030000  88.9990000  40.4450000 123.5020000
  58.9180000  54.9650000 163.8140000  57.9940000  54.8000000 164.0000000
  59.0740000  54.5380000 162.9710000  63.8150000  46.9610000 127.4230000
  64.1960000  46.6460000 126.6030000  63.1890000  46.2810000 127.6730000
  78.1970000  53.1690000 129.4750000  77.7370000  52.3300000 129.4640000
  77.5750000  53.7790000 129.8710000  70.3690000  42.3760000 139.9420000
  69.4130000  42.3990000 139.9780000  70.5780000  41.4770000 139.6880000
  39.4460000  31.1290000 126.4660000  39.3220000  32.0530000 126.6830000
  40.3940000  31.0000000 126.4990000  31.8660000  63.8400000 148.2020000
  31.7840000  64.7270000 147.8520000  31.0000000  63.6430000 148.5610000
  85.7970000  81.9690000 142.3100000  86.1740000  81.3630000 141.6720000
  84.9000000  82.1090000 142.0060000  72.5440000  79.1520000 125.2380000
  73.2460000  78.8920000 125.8340000  71.8860000  79.5570000 125.8040000
  61.5570000  35.0400000 130.2570000  61.9260000  34.1800000 130.4570000
  62.0310000  35.3300000 129.4770000  88.6480000  68.8220000 134.5660000
  89.0000000  69.0020000 133.6940000  87.6990000  68.8770000 134.4570000
  35.5520000  67.4830000 146.7940000  35.5640000  67.8840000 147.6630000
  35.5840000  68.2230000 146.1880000  53.2350000  67.9230000 127.8430000
  52.5640000  67.5520000 128.4150000  53.8440000  67.2010000 127.6880000
  48.3390000  48.7000000 128.2010000  49.1850000  48.3860000 128.5190000
  47.7000000  48.3250000 128.8080000  64.7590000  70.5550000 158.2950000
  64.2480000  70.9630000 158.9940000  65.0710000  69.7330000 158.6740000
  88.9770000  50.0190000 163.4140000  89.0000000  50.7750000 164.0000000
  88.8880000  49.2660000 163.9980000  33.1170000  46.6940000 137.4430000
  32.7280000  47.5690000 137.4340000  32.4370000  46.1260000 137.0810000
  36.9730000  38.1820000 142.3840000  36.0640000  38.2540000 142.6760000
  36.9330000  37.6100000 141.6170000  34.0510000  58.1820000 139.7550000
  33.7890000  57.7470000 138.9430000  33.3340000  58.0050000 140.3640000
  87.8400000  53.5490000 163.9860000  87.4600000  54.4270000 163.9720000
  87.0850000  52.9600000 164.0000000  72.2310000  36.0700000 140.6230000
  72.7340000  36.8570000 140.4160000  72.8930000  35.3940000 140.7700000
  31.0000000  76.4310000 130.9090000  31.8570000  76.0830000 131.1550000
  31.1820000  77.3170000 130.5940000  75.9810000  56.3540000 143.2680000
  75.3360000  56.2590000 142.5670000  75.9590000  55.5160000 143.7300000
  50.8120000  77.8070000 141.3750000  50.4930000  78.6320000 141.7430000
  50.0210000  77.2860000 141.2340000  49.4970000  45.9360000 150.8050000
  49.4390000  46.8910000 150.7760000  50.2860000  45.7280000 150.3030000
  75.8020000  39.7630000 136.3650000  76.0290000  40.5170000 136.9080000
  74.9010000  39.9300000 136.0870000  57.3660000  56.2310000 150.2650000
  56.8120000  56.0250000 151.0170000  57.7680000  55.3960000 150.0270000
  69.1020000  40.6260000 124.5080000  69.6630000  40.5850000 123.7330000
  69.3280000  41.4580000 124.9250000  40.2940000  67.3550000 123.5040000
  40.2960000  66.3980000 123.5000000  39.3670000  67.5940000 123.5070000
  38.7870000  78.4420000 151.8830000  39.1040000  77.6440000 151.4590000
  38.9180000  79.1290000 151.2300000  46.2000000  74.4090000 161.4130000
  45.4010000  74.0060000 161.7530000  45.9420000  75.3040000 161.1920000
  55.0180000  57.5600000 149.7490000  54.7050000  57.3340000 150.6240000
  54.7740000  58.4790000 149.6360000  81.7980000  75.8010000 138.5850000
  80.8520000  75.7500000 138.4520000  82.0710000  74.8940000 138.7220000
  73.7110000  42.8120000 140.6330000  72.7590000  42.8110000 140.5370000
  73.9030000  42.0160000 141.1290000  59.7670000  33.4150000 160.2050000
  59.9480000  33.0260000 159.3500000  58.9780000  33.9410000 160.0680000
  86.5560000  44.0000000 132.6740000  86.2830000  44.2950000 131.8050000
  85.8910000  43.3590000 132.9290000  58.7860000  83.4150000 151.0430000
  59.5580000  83.7310000 151.5110000  58.0730000  83.4890000 151.6780000
  66.6630000  34.1290000 145.8920000  67.1470000  33.7500000 146.6260000
  66.0100000  33.4660000 145.6670000  65.2070000  51.7300000 137.1980000
  65.1160000  50.8550000 136.8220000  66.0100000  52.0760000 136.8090000
  66.2640000  85.9990000 142.8370000  66.1770000  85.3910000 142.1030000
  67.0710000  85.7300000 143.2760000  81.7950000  50.5130000 151.0660000
  82.0420000  49.5890000 151.0330000  81.0220000  50.5750000 150.5030000
  85.0230000  48.5190000 147.0580000  84.2060000  48.7820000 146.6340000
  85.7070000  48.9580000 146.5520000  52.9370000  59.3200000 155.2000000
  52.1710000  59.7880000 154.8680000  53.4300000  59.0790000 154.4160000
  42.4010000  74.6390000 138.9620000  42.4840000  73.8120000 139.4370000
  42.7320000  75.3000000 139.5720000  85.3090000  37.1470000 129.8410000
  85.2210000  36.3080000 130.2940000  85.5470000  36.9110000 128.9440000
  77.7190000  77.4960000 162.2350000  77.6690000  76.7360000 162.8140000
  78.1330000  77.1650000 161.4380000  43.0310000  40.7320000 163.4850000
  42.2240000  40.4600000 163.9200000  42.9800000  41.6880000 163.4610000
  54.3590000  79.5080000 155.6660000  55.2940000  79.7140000 155.6510000
  53.9260000  80.3620000 155.6630000  61.4330000  75.8790000 163.5650000
  61.2740000  75.5280000 162.6890000  61.9900000  76.6440000 163.4190000
  45.4100000  32.0790000 159.6690000  45.6760000  31.2210000 160.0000000
  45.1050000  32.5510000 160.4450000  66.5620000  59.3590000 123.5760000
  67.3000000  59.9670000 123.5410000  65.7880000  59.9220000 123.5780000
  41.0220000  83.8020000 158.1910000  41.4500000  82.9590000 158.3390000
  41.7260000  84.3790000 157.8940000  34.6930000  74.0450000 138.2750000
  35.3840000  73.4440000 138.5530000  34.8090000  74.1210000 137.3270000
  86.6680000  50.4190000 138.1140000  86.3210000  51.3100000 138.1420000
  86.0740000  49.9130000 138.6690000  64.7790000  39.8520000 123.5000000
  64.7770000  38.8950000 123.5000000  65.7060000  40.0900000 123.5000000
  73.7610000  40.0860000 133.5990000  72.9890000  40.0960000 133.0340000
  73.7130000  40.9080000 134.0870000  76.8530000  52.7510000 123.5000000
  77.5290000  52.0730000 123.5000000  76.0270000  52.2670000 123.5000000
  69.4110000  85.1140000 136.6520000  69.5050000  86.0510000 136.8220000
  70.2700000  84.8420000 136.3280000  68.5120000  86.4420000 123.5000000
  69.0600000  87.2250000 123.5530000  68.6010000  86.0280000 124.3590000
  72.3970000  76.3060000 133.3610000  73.2350000  76.7090000 133.5880000
  72.6260000  75.4170000 133.0890000  84.7270000  31.6040000 124.2420000
  84.7510000  31.0000000 123.5000000  84.6980000  32.4740000 123.8420000
  31.0000000  35.7490000 130.8290000  31.6230000  36.3900000 131.1700000
  31.5380000  34.9940000 130.5920000  61.8150000  72.7690000 136.8590000
  62.2240000  73.6320000 136.9200000  61.1520000  72.7690000 137.5500000
  86.5160000  64.0240000 137.2320000  85.5800000  64.1920000 137.1280000
  86.5940000  63.0700000 137.2000000  39.1360000  80.6760000 162.9890000
  39.7540000  81.2990000 162.6080000  38.4390000  81.2220000 163.3540000
  51.9790000  83.3200000 136.3510000  51.4920000  82.5970000 136.7460000
  52.8560000  83.2530000 136.7300000  46.2240000  74.8570000 149.1680000
  46.7770000  75.3400000 149.7820000  46.7960000  74.6760000 148.4220000
  31.0000000  41.1500000 164.0000000  31.1290000  42.0910000 163.8860000
  31.1620000  40.7780000 163.1330000  41.8550000  61.6110000 147.7230000
  42.0070000  61.0100000 148.4510000  41.5980000  62.4340000 148.1400000
  50.8880000  75.3380000 139.8930000  51.3500000  74.5970000 139.5030000
  49.9960000  75.0180000 140.0330000  78.1760000  62.2030000 151.3390000
  78.3280000  61.3110000 151.0260000  78.8380000  62.7310000 150.8920000
  37.6730000  79.7100000 123.5090000  36.9230000  79.1450000 123.6940000
  38.4360000  79.1840000 123.7530000  34.2430000  68.2690000 129.1910000
  34.5680000  67.9670000 128.3430000  33.3280000  67.9880000 129.2120000
  79.9320000  45.7210000 123.5000000  79.0130000  45.9890000 123.5000000
  79.9040000  44.7640000 123.5000000  57.3880000  37.6540000 132.7950000
  56.9320000  38.1790000 133.4530000  56.7530000  36.9840000 132.5400000
  84.1570000  57.4080000 124.0740000  84.8370000  57.0130000 123.5290000
  83.7260000  58.0410000 123.5000000  53.6450000  50.1740000 137.7530000
  53.2580000  50.7530000 137.0970000  53.2110000  49.3310000 137.6140000
  59.5030000  44.0530000 140.0220000  59.5810000  44.9420000 139.6760000
  59.0170000  44.1550000 140.8410000  84.2610000  59.4500000 150.5690000
  84.8390000  59.4320000 149.8070000  84.8290000  59.2290000 151.3070000
  38.6910000  68.8870000 128.3360000  39.6120000  68.9000000 128.5960000
  38.4170000  69.8040000 128.3730000  53.4910000  49.7070000 144.1590000
  53.7400000  49.2350000 143.3650000  52.5350000  49.7480000 144.1250000
  88.0900000  68.4220000 127.2950000  88.9990000  68.1560000 127.4290000
  87.5740000  67.7380000 127.7240000  49.5870000  39.2640000 146.4750000
  49.6720000  39.9870000 145.8540000  48.6560000  39.2490000 146.7010000
  66.2680000  78.2410000 127.3020000  65.3650000  78.3100000 127.6140000
  66.3510000  77.3330000 127.0090000  35.9790000  49.5360000 151.0530000
  36.3630000  49.1620000 151.8460000  35.9070000  50.4730000 151.2390000
  61.8920000  64.0980000 133.7180000  62.1820000  63.4130000 134.3200000
  61.5690000  63.6220000 132.9520000  85.7240000  79.9680000 156.6440000
  86.6800000  79.9640000 156.6810000  85.4870000  80.8960000 156.6630000
  81.7860000  78.0590000 147.6920000  82.4480000  78.1740000 147.0100000
  80.9940000  78.4540000 147.3260000  36.2810000  52.6810000 147.8630000
  36.1840000  52.4050000 148.7740000  37.1790000  52.4430000 147.6330000
  45.9890000  41.1840000 136.7150000  46.0290000  42.0990000 136.4360000
  45.3320000  41.1730000 137.4110000  46.9790000  36.6840000 141.8040000
  47.3570000  37.2770000 142.4520000  47.0560000  35.8150000 142.1990000
  52.1150000  74.6920000 123.5000000  52.9470000  74.8470000 123.9450000
  51.7670000  73.9000000 123.9100000  46.9050000  77.2370000 125.9950000
  47.7020000  76.7570000 125.7680000  47.1400000  77.7340000 126.7790000
  74.7180000  53.1640000 136.5580000  73.7690000  53.2330000 136.4560000
  74.8620000  53.2190000 137.5040000  34.3860000  83.7730000 133.4410000
  34.4950000  82.9920000 133.9830000  35.0200000  83.6650000 132.7320000
  51.5830000  88.0580000 163.8790000  51.2600000  88.9520000 163.7720000
  50.7930000  87.5300000 164.0000000  67.7270000  63.6130000 137.4330000
  68.4540000  64.2200000 137.2930000  67.9350000  62.8580000 136.8820000
  61.5680000  66.4000000 131.7410000  61.0810000  66.1370000 132.5210000
  62.2340000  67.0050000 132.0660000  85.9190000  89.0000000 132.7480000
  85.2330000  89.0000000 133.4160000  85.4530000  88.8440000 131.9260000
  75.3630000  88.4260000 157.8460000  76.1190000  89.0000000 157.7290000
  74.6050000  89.0000000 157.7260000  43.0950000  55.0450000 134.6130000
  43.5050000  54.4720000 135.2620000  42.5380000  55.6300000 135.1280000
  60.7200000  38.6210000 157.1160000  61.2600000  38.5570000 157.9030000
  60.7610000  39.5460000 156.8710000  65.5720000  35.1730000 159.4180000
  66.4150000  34.9490000 159.8130000  65.5070000  36.1230000 159.5150000
  51.6550000  67.8570000 123.5000000  52.5690000  67.8590000 123.7830000
  51.3600000  66.9580000 123.6480000  34.2080000  49.0600000 159.5940000
  33.5060000  49.5440000 159.1600000  34.9980000  49.2910000 159.1040000
  60.2670000  78.3870000 150.1930000  59.4710000  78.8920000 150.0270000
  59.9510000  77.5220000 150.4560000  37.1610000  73.0150000 155.3400000
  37.8140000  73.6880000 155.1480000  37.3270000  72.7720000 156.2510000
  33.7190000  38.0830000 140.0810000  32.8710000  38.1870000 140.5130000
  33.5790000  38.4160000 139.1950000  49.2920000  51.7530000 141.5310000
  49.7410000  50.9390000 141.3040000  49.2290000  52.2310000 140.7040000
  77.6710000  82.4660000 128.3190000  77.9130000  83.0110000 127.5710000
  76.7290000  82.6060000 128.4230000  61.1180000  71.4610000 159.7310000
  60.2450000  71.8320000 159.8600000  61.6510000  72.1990000 159.4330000
  48.2680000  52.6630000 157.4010000  47.9850000  53.3490000 156.7960000
  47.4760000  52.4260000 157.8830000  64.4700000  79.5050000 139.9420000
  65.0600000  79.8720000 140.5990000  63.9420000  78.8660000 140.4220000
  69.5360000  71.5100000 127.1500000  69.9660000  70.9830000 126.4770000
  70.1020000  71.4280000 127.9180000  49.8760000  84.6480000 140.8900000
  48.9190000  84.6250000 140.8840000  50.1370000  83.7370000 141.0300000
  58.1390000  69.6940000 160.7810000  58.9820000  69.2460000 160.7140000
  57.5020000  68.9900000 160.9080000  67.1670000  79.6820000 145.9400000
  67.9220000  79.6210000 145.3550000  66.9440000  80.6130000 145.9480000
  84.4880000  53.7560000 146.2700000  83.9830000  54.4760000 145.8910000
  84.4830000  53.9300000 147.2120000  65.1590000  85.3750000 151.5720000
  64.8420000  86.2780000 151.5630000  66.1040000  85.4540000 151.7080000
  84.7670000  87.1690000 161.5870000  84.2340000  87.9640000 161.5890000
  84.1740000  86.4820000 161.8910000  74.9020000  70.6340000 160.0880000
  74.1240000  70.2500000 159.6830000  74.5960000  70.9600000 160.9340000
  80.2760000  58.4360000 141.2970000  80.0600000  59.3280000 141.0260000
  79.7670000  57.8760000 140.7090000  54.6250000  38.6670000 155.2070000
  54.3840000  37.8990000 155.7260000  53.9100000  38.7640000 154.5770000
  68.7190000  88.3660000 155.8890000  68.9790000  87.5270000 156.2670000
  69.3280000  89.0000000 156.2680000  66.8320000  39.0070000 159.3330000
  67.0570000  38.0770000 159.3470000  67.6770000  39.4590000 159.3220000
  74.2000000  79.7830000 128.4310000  73.3830000  79.4990000 128.8430000
  74.6890000  80.2070000 129.1370000  50.2650000  84.7840000 158.7930000
  50.4390000  85.4570000 159.4510000  50.9590000  84.8990000 158.1430000
  84.9030000  77.2720000 137.5290000  83.9730000  77.1890000 137.7380000
  84.9930000  76.8590000 136.6690000  81.2630000  37.3990000 163.8590000
  80.4310000  37.8660000 163.9370000  81.0360000  36.4800000 164.0000000
  51.7550000  43.2220000 137.0520000  50.9590000  42.9850000 137.5270000
  51.4850000  43.9330000 136.4700000  76.2550000  72.5540000 147.6310000
  75.8480000  72.3450000 148.4710000  76.3970000  71.7030000 147.2150000
  72.7840000  71.8020000 154.7450000  72.3940000  72.6060000 154.4010000
  73.6740000  72.0540000 154.9930000  33.5500000  52.8340000 147.7190000
  33.3890000  52.2620000 146.9690000  33.9450000  53.6200000 147.3410000
  38.5000000  53.4240000 149.6140000  39.3580000  53.7940000 149.4070000
  38.5760000  53.1370000 150.5250000  74.3240000  71.5820000 127.7420000
  75.2290000  71.4950000 127.4460000  74.3780000  72.1390000 128.5190000
  79.7660000  49.7010000 152.4810000  79.3260000  50.3300000 153.0520000
  79.1380000  49.5360000 151.7770000  31.6130000  88.9420000 144.9520000
  31.0170000  88.6590000 145.6440000  31.0630000  89.0000000 144.1700000
  71.4590000  59.7890000 140.4070000  72.4140000  59.7700000 140.3530000
  71.2420000  60.7150000 140.5170000  38.3610000  51.1200000 153.1440000
  39.0220000  50.5240000 153.4970000  38.8460000  51.6860000 152.5430000
  38.2040000  82.4940000 160.5570000  37.4450000  83.0720000 160.6330000
  37.9180000  81.6690000 160.9500000  86.7440000  71.6790000 138.9670000
  86.1360000  72.4160000 139.0290000  86.1890000  70.9270000 138.7600000
  88.2570000  66.0590000 132.5430000  89.0000000  66.3910000 133.0460000
  87.5720000  66.7170000 132.6640000  55.3480000  51.8310000 153.5080000
  55.6480000  51.3170000 152.7580000  55.4990000  51.2630000 154.2640000
  36.2810000  68.2100000 143.4690000  36.2640000  68.3230000 142.5180000
  35.3760000  68.0040000 143.7020000  42.3730000  54.0580000 129.6870000
  43.0260000  53.5760000 130.1940000  42.8840000  54.5520000 129.0450000
  64.0080000  89.0000000 159.4220000  63.9770000  88.8930000 158.4710000
  64.9240000  88.8430000 159.6510000  61.6730000  44.9200000 160.8580000
  61.5120000  45.5440000 160.1510000  61.1520000  44.1520000 160.6240000
  60.9140000  73.6470000 153.7910000  61.6340000  73.6200000 153.1620000
  61.1270000  74.3800000 154.3690000  65.1870000  78.2820000 136.6140000
  64.3950000  78.8080000 136.7250000  64.8910000  77.5010000 136.1450000
  32.2480000  54.7790000 159.7870000  32.7050000  54.1580000 160.3540000
  31.4280000  54.3400000 159.5610000  66.4450000  40.9740000 147.5450000
  66.3060000  41.7930000 147.0690000  66.8660000  40.3950000 146.9080000
  33.4060000  72.8270000 142.3440000  34.3570000  72.7520000 142.2590000
  33.1580000  73.4820000 141.6920000  34.0480000  66.5650000 156.4990000
  34.5250000  67.0920000 155.8590000  33.3090000  67.1150000 156.7600000
  56.8940000  66.7100000 145.3770000  57.4830000  67.4620000 145.4490000
  57.4770000  65.9540000 145.3120000  78.5990000  37.9120000 159.7320000
  77.6660000  37.7450000 159.8640000  78.9640000  37.0590000 159.4960000
  85.5060000  46.1180000 151.5020000  84.9180000  46.8010000 151.8240000
  86.3850000  46.4630000 151.6620000  34.1240000  31.0000000 160.2700000
  34.5150000  31.0870000 161.1390000  34.7420000  31.4380000 159.6840000
  66.6210000  31.0000000 138.5760000  67.5520000  31.0320000 138.3550000
  66.5960000  31.1200000 139.5250000  56.1010000  39.9200000 140.8970000
  55.7030000  40.6610000 141.3530000  55.5480000  39.7870000 140.1270000
  33.4680000  77.2400000 137.3370000  33.5510000  76.3390000 137.6480000
  34.2640000  77.3920000 136.8260000  78.4620000  51.6190000 140.5400000
  77.9620000  52.4200000 140.3850000  79.2010000  51.6750000 139.9340000
  73.1070000  71.9990000 146.4570000  74.0470000  72.1700000 146.5020000
  72.7350000  72.7960000 146.0800000  65.5500000  81.7840000 159.0920000
  66.4430000  82.0430000 159.3180000  65.0240000  82.0530000 159.8450000
  61.2870000  82.4540000 163.0500000  61.6200000  81.6210000 162.7180000
  61.2560000  82.3390000 164.0000000  70.4460000  52.2080000 123.5010000
  71.3970000  52.1040000 123.5030000  70.3090000  53.1560000 123.5000000
  68.3930000  75.9410000 157.9130000  68.8100000  76.2630000 157.1140000
  67.6110000  75.4810000 157.6070000  46.3830000  70.2660000 128.4110000
  45.4560000  70.4460000 128.5700000  46.7930000  70.3420000 129.2720000
  86.2160000  84.9990000 135.5760000  86.0420000  85.7660000 136.1210000
  86.2530000  85.3430000 134.6830000  65.8590000  43.8380000 159.0080000
  66.7190000  44.2250000 158.8440000  65.2480000  44.5700000 158.9300000
  79.1960000  45.7290000 137.7310000  78.6570000  46.4430000 138.0730000
  78.6410000  44.9530000 137.8060000  40.5410000  33.9950000 129.1800000
  40.3530000  33.6660000 128.3020000  39.9970000  34.7780000 129.2650000
  51.6470000  37.2570000 130.0250000  51.8790000  36.3410000 130.1770000
  51.5150000  37.6200000 130.9010000  59.6410000  56.8240000 125.5500000
  59.0090000  56.2330000 125.9570000  60.4890000  56.5420000 125.8940000
  41.8370000  51.9160000 123.5060000  41.3690000  51.1660000 123.8720000
  41.4980000  52.6700000 123.9890000  31.0140000  84.4450000 161.6850000
  31.0000000  83.6240000 161.1940000  31.9040000  84.7790000 161.5700000
  36.2910000  71.1090000 128.2140000  35.7560000  70.4270000 128.6190000
  35.6630000  71.7840000 127.9540000  69.0530000  85.2870000 146.0980000
  68.1960000  85.4100000 146.5070000  69.4750000  86.1440000 146.1620000
  79.6590000  54.9350000 140.9160000  79.8930000  54.4800000 140.1070000
  80.4900000  55.0470000 141.3780000  66.5310000  86.0750000 128.7210000
  66.7560000  86.6850000 128.0190000  65.9580000  86.5770000 129.3010000
  69.2760000  31.0040000 132.1270000  68.9320000  31.8750000 132.3230000
  70.0820000  31.1680000 131.6370000  34.0770000  62.9970000 141.3040000
  34.5610000  63.5340000 141.9310000  33.2690000  63.4860000 141.1440000
  61.5930000  50.8090000 153.6530000  62.2310000  51.5180000 153.7370000
  61.8530000  50.3460000 152.8570000  43.5250000  47.3150000 124.2290000
  44.1520000  47.1560000 124.9350000  44.0580000  47.6310000 123.5000000
  86.1950000  55.9630000 134.4750000  85.8780000  56.2290000 135.3380000
  85.7600000  55.1260000 134.3070000  68.1450000  60.0970000 126.2760000
  68.1340000  59.1430000 126.2100000  67.2620000  60.3660000 126.0230000
  87.7180000  81.6690000 144.5230000  87.4400000  80.9830000 143.9150000
  88.5660000  81.9590000 144.1850000  56.1840000  74.7890000 152.7040000
  57.0690000  74.4280000 152.7450000  55.6180000  74.0250000 152.5880000
  45.2410000  48.6830000 131.0850000  45.4260000  47.7440000 131.1060000
  45.9910000  49.0650000 130.6280000  83.5160000  64.5560000 133.7100000
  82.9430000  65.3220000 133.6960000  84.4000000  64.9160000 133.6350000
  86.5290000  45.8350000 143.8680000  86.0920000  44.9890000 143.9680000
  86.4170000  46.0540000 142.9420000  86.5440000  73.4350000 136.7040000
  85.5970000  73.3030000 136.7550000  86.9050000  72.5510000 136.6300000
  47.8750000  79.6340000 133.8500000  48.7480000  79.2710000 133.7000000
  48.0280000  80.5650000 134.0160000  64.9640000  64.2050000 125.3990000
  64.3290000  64.8030000 125.7930000  65.7470000  64.7390000 125.2650000
  53.9860000  77.2800000 134.1720000  54.2850000  78.1480000 133.9030000
  53.1160000  77.4290000 134.5420000  36.5480000  80.6350000 133.5280000
  36.0720000  80.6280000 134.3580000  36.3330000  81.4810000 133.1350000
  72.1300000  36.1970000 127.7660000  72.2040000  35.6270000 128.5310000
  72.8690000  36.8010000 127.8440000  75.1290000  34.7520000 139.8540000
  75.9740000  34.8050000 139.4090000  75.2410000  34.0540000 140.5000000
  49.3450000  36.2130000 140.0320000  49.9570000  36.7950000 140.4830000
  49.8690000  35.4440000 139.8050000  35.2650000  61.8130000 158.5330000
  34.5590000  62.2600000 158.9990000  35.4470000  61.0360000 159.0610000
  81.4160000  45.8920000 144.2660000  81.2370000  46.8180000 144.1060000
  81.1950000  45.7610000 145.1890000  64.3880000  89.0000000 162.9050000
  63.7930000  88.9720000 162.1560000  65.2630000  88.9850000 162.5180000
  48.1040000  88.4960000 124.1330000  48.6560000  88.9540000 123.5000000
  48.1980000  89.0000000 124.9420000  45.7160000  80.6750000 125.5670000
  46.2140000  79.8600000 125.6060000  44.8000000  80.3960000 125.5330000
  82.2990000  34.6490000 129.4640000  83.0660000  34.5550000 130.0290000
  82.5830000  35.2470000 128.7720000  47.1280000  60.0280000 138.3280000
  46.2900000  59.9990000 137.8660000  47.2660000  60.9570000 138.5160000
  65.2290000  51.8800000 123.5150000  65.7240000  52.6980000 123.5000000
  64.4880000  52.0590000 124.0940000  69.8910000  72.7620000 149.0160000
  70.5320000  72.1750000 149.4170000  69.1750000  72.8060000 149.6510000
  67.3000000  38.8020000 141.3240000  68.2030000  38.8980000 141.6260000
  67.2030000  37.8660000 141.1490000  44.0630000  31.1670000 143.3260000
  43.2690000  31.4060000 143.8040000  44.7140000  31.0000000 144.0080000
  56.3580000  88.5420000 152.8350000  55.9280000  89.0000000 152.1130000
  56.0610000  89.0000000 153.6210000  57.6610000  33.2170000 124.6740000
  57.8590000  34.0580000 124.2630000  58.2530000  33.1720000 125.4250000
  50.2920000  83.6310000 131.7630000  49.5150000  83.4470000 132.2900000
  50.7010000  82.7750000 131.6330000  71.0660000  63.2770000 125.5620000
  71.1470000  63.0640000 126.4920000  71.2030000  64.2230000 125.5200000
  64.9010000  70.3250000 150.6100000  64.4900000  69.4690000 150.7270000
  65.5370000  70.1910000 149.9070000  54.8380000  61.5550000 161.3640000
  54.3670000  61.6010000 160.5330000  54.9770000  60.6190000 161.5110000
  68.3130000  54.4540000 161.6400000  68.5570000  53.5520000 161.8460000
  69.1470000  54.9190000 161.5720000  59.5780000  47.8190000 129.7800000
  60.3020000  47.2200000 129.9640000  59.1680000  47.9670000 130.6320000
  67.3210000  83.2350000 141.5210000  67.8010000  82.5840000 141.0090000
  67.2660000  82.8570000 142.3990000  71.5520000  50.8850000 163.4140000
  71.2840000  51.5920000 164.0000000  71.8190000  50.1760000 164.0000000
  36.6420000  43.0890000 160.6830000  36.2720000  43.6170000 161.3900000
  36.4940000  42.1840000 160.9570000  78.9980000  79.7400000 145.3140000
  79.6610000  80.3880000 145.0770000  79.0760000  79.6550000 146.2650000
  39.4690000  44.7560000 158.8890000  40.2380000  45.1650000 159.2860000
  38.9760000  45.4850000 158.5110000  37.7760000  73.3230000 163.9570000
  38.1000000  72.4240000 163.8960000  36.8240000  73.2330000 164.0000000
  66.2310000  86.7810000 156.9650000  65.5030000  87.0570000 157.5230000
  65.9170000  85.9840000 156.5380000  73.8660000  83.0490000 142.1250000
  73.5330000  83.9420000 142.2050000  74.8110000  83.1540000 142.0100000
  63.7580000  52.1230000 148.7650000  63.0830000  51.5530000 149.1320000
  64.5590000  51.5990000 148.7990000  34.3690000  86.5260000 133.2640000
  33.9590000  86.0630000 132.5330000  33.7790000  87.2580000 133.4450000
  32.4600000  86.6230000 148.6830000  32.3450000  85.7350000 149.0210000
  33.0830000  87.0300000 149.2860000  84.0930000  61.3860000 132.4320000
  83.1840000  61.6700000 132.3350000  84.0310000  60.4730000 132.7130000
  79.3870000  47.3660000 128.6180000  78.5750000  47.7540000 128.2960000
  79.1360000  46.9180000 129.4270000  51.8860000  60.0960000 134.7950000
  51.5150000  60.9020000 134.4360000  51.8520000  59.4720000 134.0690000
  87.5890000  84.6200000 124.9850000  87.6390000  85.4450000 125.4670000
  86.9360000  84.7790000 124.3040000  44.8870000  87.3970000 142.6080000
  44.1870000  87.3290000 141.9600000  44.5900000  88.0770000 143.2130000
  56.0910000  59.9050000 136.5790000  56.2240000  59.4370000 137.4030000
  55.6210000  60.7020000 136.8290000  35.3220000  76.8580000 146.6270000
  35.6310000  77.0610000 147.5090000  35.6850000  75.9920000 146.4390000
  56.9120000  80.3260000 130.9120000  56.7070000  81.2370000 131.1170000
  56.1210000  79.9900000 130.4900000  39.7260000  88.4130000 132.7210000
  40.4750000  88.9990000 132.6090000  38.9690000  88.9970000 132.7730000
  51.4480000  51.9760000 138.5530000  50.6390000  52.4850000 138.5300000
  51.2170000  51.1780000 139.0300000  55.1950000  63.6030000 136.5280000
  54.7180000  62.9190000 136.0590000  55.3190000  63.2480000 137.4090000
  62.8380000  34.3820000 133.6380000  62.2370000  34.7850000 133.0130000
  63.4500000  35.0820000 133.8680000  73.6250000  56.4940000 125.7130000
  74.3640000  56.9640000 126.0980000  73.0800000  57.1790000 125.3260000
  41.7550000  66.8950000 157.5340000  42.6910000  66.6940000 157.5420000
  41.7140000  67.8460000 157.6410000  51.6170000  72.0240000 151.2660000
  50.7620000  72.3800000 151.0230000  52.1360000  72.7910000 151.5080000
  78.5950000  64.2370000 125.6300000  79.1380000  63.4530000 125.5490000
  77.7060000  63.9020000 125.7460000  74.3280000  59.2860000 127.6250000
  75.2380000  59.5310000 127.4600000  73.9080000  59.3300000 126.7650000
  71.5610000  33.6770000 139.5350000  70.7010000  33.6070000 139.1210000
  71.6790000  32.8400000 139.9850000  57.0670000  75.2530000 140.0870000
  56.4360000  75.6870000 139.5130000  57.6900000  75.9410000 140.3210000
  31.0000000  72.9600000 131.0850000  31.2120000  72.0460000 130.8970000
  31.1870000  73.4230000 130.2680000  44.7450000  81.8420000 154.9890000
  45.6960000  81.9120000 155.0710000  44.5710000  80.9000000 155.0110000
  44.4590000  49.5070000 155.3940000  43.7420000  49.9520000 154.9420000
  45.0590000  49.2460000 154.6950000  71.0200000  66.5880000 158.8550000
  71.0490000  65.6310000 158.8570000  70.0870000  66.8000000 158.8290000
  70.1010000  39.6280000 158.7370000  70.7190000  40.2710000 159.0850000
  70.4610000  39.3880000 157.8820000  75.3220000  65.1360000 139.3310000
  75.0370000  64.7170000 138.5200000  76.1650000  64.7290000 139.5290000
  64.0860000  86.5910000 132.1890000  64.6260000  86.7290000 131.4110000
  63.2020000  86.4560000 131.8470000  61.6220000  78.2040000 139.7690000
  60.7510000  78.1760000 140.1640000  61.6280000  77.4730000 139.1500000
  34.3190000  48.0190000 123.5000000  35.0910000  48.5840000 123.5050000
  34.5960000  47.2270000 123.9610000  68.7730000  78.3890000 163.9050000
  69.4000000  77.6680000 163.9550000  67.9170000  77.9700000 164.0000000
  31.5320000  47.4680000 125.6370000  31.0270000  47.5810000 126.4420000
  32.3670000  47.1000000 125.9280000  85.6520000  88.7320000 152.0990000
  86.2720000  89.0000000 152.7770000  84.7970000  89.0000000 152.4360000
  55.5320000  81.7100000 127.7410000  56.0670000  82.2390000 127.1480000
  54.6380000  82.0250000 127.6030000  85.0720000  72.8580000 131.2230000
  84.6050000  73.6920000 131.1750000  85.9520000  73.0930000 131.5200000
  34.4580000  52.9350000 129.2270000  34.7690000  53.7860000 128.9190000
  33.5960000  52.8340000 128.8210000  57.6050000  62.1430000 127.0930000
  57.9020000  61.2340000 127.0710000  57.4390000  62.3640000 126.1760000
  58.6380000  75.8980000 155.2530000  59.5070000  76.2570000 155.0780000
  58.4280000  76.1970000 156.1380000  69.0310000  85.3810000 128.1090000
  69.7020000  84.9980000 127.5440000  68.6140000  84.6300000 128.5310000
  72.4120000  86.1560000 141.7580000  72.2080000  86.1040000 142.6920000
  73.2450000  86.6270000 141.7200000  73.9030000  80.3620000 140.0280000
  73.6160000  80.6220000 140.9030000  73.1960000  79.8070000 139.6990000
  40.4750000  73.6800000 127.7850000  39.8650000  72.9530000 127.6560000
  39.9130000  74.4390000 127.9440000  86.0150000  69.2370000 150.4090000
  86.4920000  70.0240000 150.6730000  85.2250000  69.2420000 150.9510000
  46.5970000  69.2170000 160.7240000  46.2870000  69.1290000 161.6250000
  47.4980000  69.5290000 160.8090000  62.9660000  65.5760000 127.7670000
  63.2940000  66.4530000 127.5680000  62.0420000  65.7080000 127.9780000
  52.9650000  59.1610000 127.9640000  52.6300000  58.2960000 128.2030000
  52.5130000  59.7640000 128.5550000  83.9710000  59.6750000 159.1130000
  83.1000000  59.2790000 159.1260000  84.4940000  59.0880000 158.5660000
  68.3900000  67.5040000 130.3890000  68.0110000  67.1610000 131.1990000
  69.0660000  68.1170000 130.6820000  85.5060000  52.1350000 130.8680000
  85.1880000  52.0650000 129.9680000  85.1320000  51.3740000 131.3140000
  63.7060000  84.4980000 143.2490000  63.6280000  85.4520000 143.2430000
  62.8020000  84.1830000 143.2510000  83.3620000  64.8170000 154.9880000
  83.5420000  64.1930000 155.6910000  82.4840000  64.5880000 154.6830000
  85.5930000  47.2690000 139.9800000  84.7130000  47.6050000 139.8090000
  85.4670000  46.6030000 140.6570000  58.0490000  50.4100000 137.2340000
  57.5600000  50.0900000 137.9920000  58.1610000  51.3460000 137.3980000
  31.5640000  58.0910000 126.0150000  31.0000000  58.6740000 126.5220000
  32.1930000  58.6750000 125.5900000  79.7690000  76.5740000 128.0220000
  79.2220000  76.0000000 127.4870000  80.4810000  76.0110000 128.3290000
  39.9170000  31.0000000 134.6020000  40.4510000  31.1620000 135.3790000
  39.0140000  31.0960000 134.9060000  32.2470000  86.8770000 140.0850000
  32.5560000  86.4420000 140.8790000  31.4160000  86.4470000 139.8840000
  39.2570000  78.8240000 129.0550000  39.8480000  78.2140000 128.6130000
  38.4100000  78.3770000 129.0590000  59.0440000  88.0490000 147.9310000
  58.9480000  89.0000000 147.9860000  58.1550000  87.7110000 148.0460000
  43.3580000  49.0720000 134.3960000  42.4320000  49.1270000 134.6320000
  43.5500000  49.9120000 133.9800000  43.6440000  79.5850000 149.0340000
  44.1450000  78.7950000 149.2370000  44.2660000  80.1550000 148.5820000
  57.7930000  82.6370000 145.2660000  58.6970000  82.7060000 144.9580000
  57.5920000  81.7020000 145.2120000  46.9850000  59.3270000 148.3400000
  46.2960000  59.0550000 147.7340000  47.5430000  58.5540000 148.4320000
  85.6860000  31.3710000 163.9960000  85.8240000  32.3180000 163.9860000
  86.5690000  31.0000000 164.0000000  34.2980000  52.5550000 131.6930000
  34.0090000  53.4680000 131.6920000  35.2470000  52.6040000 131.5760000
  89.0000000  44.0280000 152.6120000  88.9120000  44.4080000 153.4860000
  88.8570000  44.7640000 152.0150000  81.4570000  55.1500000 149.5320000
  81.3330000  55.8320000 148.8730000  80.9180000  54.4200000 149.2270000
  36.6070000  55.6300000 154.3730000  36.9250000  56.0760000 155.1580000
  36.7990000  54.7050000 154.5280000  43.7890000  54.5200000 144.5100000
  44.0860000  55.2470000 143.9620000  43.2450000  54.9330000 145.1810000
  53.4990000  63.0300000 155.3310000  53.9150000  63.2920000 156.1530000
  54.2280000  62.7720000 154.7650000  52.3680000  52.3840000 146.7350000
  52.7650000  51.5860000 146.3870000  53.1110000  52.9280000 146.9960000
  36.4340000  36.8420000 129.4800000  36.6240000  36.9590000 130.4100000
  36.0540000  35.9650000 129.4210000  82.1320000  34.8950000 135.1550000
  82.5260000  34.0880000 134.8250000  81.4730000  35.1260000 134.5000000
  78.7340000  47.3160000 157.5160000  79.5710000  46.8550000 157.4580000
  78.1300000  46.6700000 157.8850000  86.5970000  35.3330000 151.6590000
  86.1940000  34.5050000 151.9200000  86.9900000  35.1490000 150.8050000
  68.6190000  50.5220000 141.7860000  67.7940000  50.7370000 141.3520000
  68.4600000  49.6710000 142.1950000  70.4660000  88.8650000 158.7420000
  70.3670000  87.9200000 158.6270000  71.4110000  89.0000000 158.8170000
  64.6350000  36.6980000 125.4650000  64.8550000  35.8410000 125.8300000
  65.3840000  36.9230000 124.9120000  31.6100000  31.0630000 143.0960000
  31.0000000  31.7750000 143.2890000  32.1600000  31.0000000 143.8780000
  54.7090000  62.3790000 127.3090000  54.0410000  61.7720000 127.6280000
  54.5320000  62.4600000 126.3710000  46.9810000  77.5540000 144.6430000
  47.9290000  77.6050000 144.5220000  46.8620000  77.4980000 145.5910000
  59.9440000  73.4990000 144.2070000  60.5350000  73.6280000 143.4650000
  60.0800000  74.2690000 144.7590000  88.4310000  62.7840000 130.5940000
  88.9800000  63.1580000 131.2830000  89.0000000  62.1560000 130.1480000
  54.2680000  43.9040000 157.5240000  54.8960000  43.9920000 158.2400000
  54.7120000  44.2890000 156.7670000  34.1470000  61.9850000 130.3480000
  33.8090000  61.5870000 129.5460000  34.7870000  61.3540000 130.6780000
  49.6230000  76.2420000 124.0170000  48.8740000  76.5380000 123.5000000
  50.3870000  76.4990000 123.5000000  49.0900000  32.2220000 127.1190000
  49.0840000  32.8380000 127.8520000  48.9530000  31.3660000 127.5240000
  54.0520000  88.2440000 142.4760000  53.7800000  89.0000000 141.9560000
  53.4820000  87.5330000 142.1830000  78.3320000  83.1750000 143.1960000
  78.3280000  82.5900000 143.9540000  77.4700000  83.0570000 142.7970000
  44.5340000  66.4360000 161.9330000  44.3800000  67.0620000 161.2260000
  44.3040000  65.5860000 161.5560000  50.8830000  51.8730000 144.7670000
  50.0370000  52.0150000 145.1920000  50.6610000  51.5430000 143.8960000
  34.4530000  50.3780000 139.9350000  33.8410000  49.9360000 139.3470000
  33.9890000  50.4280000 140.7710000  33.2400000  34.6250000 146.8420000
  33.5790000  34.9830000 146.0220000  33.9890000  34.6440000 147.4390000
  54.1500000  46.6730000 157.8230000  55.0780000  46.4670000 157.9390000
  53.7060000  46.1740000 158.5090000  38.8630000  73.2150000 135.1120000
  38.5980000  72.9860000 136.0020000  39.0240000  74.1580000 135.1450000
  82.8650000  59.1630000 164.0000000  83.3490000  58.3920000 163.7030000
  81.9500000  58.9630000 163.8030000  68.4880000  65.5460000 133.1670000
  67.7680000  65.7100000 133.7760000  69.0330000  64.8950000 133.6090000
  63.1260000  49.1270000 163.4350000  62.9730000  49.9020000 163.9750000
  63.6260000  48.5360000 164.0000000  77.5830000  74.7300000 136.1660000
  77.8360000  73.8250000 136.3520000  76.6660000  74.6720000 135.8960000
  31.4010000  34.1670000 125.5490000  32.3300000  34.0570000 125.7540000
  31.3050000  33.8020000 124.6690000  45.1330000  74.0550000 153.2780000
  44.3430000  73.5220000 153.3680000  44.8080000  74.9500000 153.1740000
  63.8470000  72.3850000 163.7610000  63.3650000  71.9350000 163.0690000
  64.7510000  72.4140000 163.4440000  75.6580000  70.3650000 135.5190000
  75.2030000  69.6650000 135.9870000  74.9930000  71.0440000 135.3970000
  85.1460000  36.9170000 163.4210000  84.3960000  36.7810000 164.0000000
  85.4630000  36.0340000 163.2290000  73.0150000  69.5850000 128.7490000
  72.4210000  70.3340000 128.7790000  73.4440000  69.5830000 129.6050000
  62.6890000  72.4310000 156.9640000  62.5810000  71.5130000 157.2130000
  61.8060000  72.7980000 157.0110000  65.4590000  67.9280000 148.0990000
  65.3860000  67.7030000 149.0260000  66.1400000  68.6010000 148.0680000
  69.8740000  86.6690000 134.2090000  70.3410000  86.5670000 133.3800000
  68.9930000  86.3390000 134.0290000  43.2080000  62.7030000 151.0230000
  43.5230000  61.8920000 151.4210000  43.1660000  62.5110000 150.0860000
  65.2360000  61.4610000 158.3450000  66.0350000  61.1610000 158.7790000
  65.5000000  62.2570000 157.8820000  67.5170000  87.6850000 135.5320000
  66.6670000  87.8670000 135.9330000  67.7690000  88.5120000 135.1190000
  86.2360000  85.8520000 147.4910000  85.5020000  85.8460000 148.1050000
  86.0950000  85.0810000 146.9410000  62.9040000  68.0070000 146.2970000
  63.6430000  68.5780000 146.5090000  62.1790000  68.6080000 146.1230000
  43.0490000  40.2170000 157.0010000  42.5100000  40.9690000 157.2470000
  42.5070000  39.7250000 156.3840000  84.9220000  82.8060000 145.0010000
  84.6790000  83.6250000 145.4310000  85.5740000  82.4140000 145.5820000
  89.0000000  84.1760000 153.3350000  88.7950000  84.3430000 154.2550000
  88.5890000  84.9010000 152.8620000  41.2970000  50.7510000 157.1720000
  41.6940000  50.3760000 156.3870000  40.4300000  50.3480000 157.2200000
  53.4240000  32.1540000 164.0000000  52.9040000  31.3510000 163.9650000
  52.7780000  32.8600000 163.9700000  86.8530000  35.1250000 158.7700000
  86.4930000  35.8950000 159.2100000  86.5820000  35.2220000 157.8560000
  36.0000000  50.8590000 155.0230000  36.7240000  51.4850000 154.9970000
  36.4250000  50.0040000 155.0950000  39.9420000  74.5540000 157.1500000
  39.0180000  74.3230000 157.2440000  40.3880000  73.7150000 157.0290000
  36.2990000  45.0540000 153.3820000  35.3960000  45.2480000 153.6320000
  36.2960000  44.1170000 153.1820000  70.4390000  84.0190000 162.8720000
  70.5960000  83.1530000 162.4960000  69.4910000  84.0550000 163.0050000
  36.6960000  35.1360000 153.7020000  37.0320000  35.8440000 154.2500000
  37.4030000  34.4890000 153.6860000  40.1650000  39.0430000 163.9960000
  40.1450000  39.3460000 163.0890000  39.6140000  38.2600000 164.0000000
  42.7960000  37.3510000 153.4040000  42.8330000  37.9770000 154.1280000
  43.6800000  36.9870000 153.3560000  39.2500000  40.4120000 157.2640000
  38.6450000  40.4890000 156.5260000  40.1140000  40.3350000 156.8590000
  88.5830000  54.8730000 140.9540000  89.0000000  54.0280000 141.1230000
  89.0000000  55.4730000 141.5720000  58.1120000  44.7210000 123.5000000
  58.3620000  45.6450000 123.5220000  58.9450000  44.2480000 123.5110000
  67.1910000  67.2510000 123.5120000  66.4210000  67.8190000 123.5300000
  66.8340000  66.3630000 123.5000000  60.5810000  87.0960000 128.8150000
  60.5600000  87.1200000 129.7720000  61.1580000  86.3620000 128.6060000
  81.3980000  86.4790000 134.1440000  80.6340000  86.7020000 134.6760000
  81.6250000  85.5880000 134.4130000  67.1070000  71.5850000 126.3830000
  66.2900000  71.1030000 126.5090000  66.9570000  72.1120000 125.5980000
  66.9550000  84.0960000 164.0000000  67.1430000  85.0330000 163.9480000
  65.9990000  84.0420000 163.9870000  72.2660000  43.7430000 135.4410000
  71.3530000  43.5480000 135.2300000  72.7650000  43.0460000 135.0140000
  40.2740000  36.5170000 141.5460000  39.7420000  36.8710000 140.8330000
  39.6360000  36.1960000 142.1840000  50.5740000  52.0890000 148.5130000
  49.6850000  51.7330000 148.5060000  50.4680000  53.0040000 148.2530000
  74.6500000  75.9980000 141.0910000  74.3140000  75.7910000 141.9630000
  75.5940000  76.1030000 141.2160000  75.0020000  82.5360000 144.8070000
  75.6640000  83.2010000 144.6200000  74.1790000  83.0220000 144.8530000
  55.6400000  37.2460000 145.3470000  56.1520000  38.0540000 145.3420000
  56.2950000  36.5470000 145.3630000  88.1050000  72.9500000 140.6350000
  88.3320000  73.8240000 140.3190000  87.3020000  73.0770000 141.1400000
  58.2750000  50.7910000 141.2630000  58.0140000  51.6430000 140.9140000
  57.5770000  50.5590000 141.8760000  85.0800000  86.5730000 144.3560000
  86.0130000  86.3800000 144.4530000  84.9550000  86.6840000 143.4140000
  78.2040000  70.3230000 156.2720000  77.6890000  70.1770000 155.4780000
  78.5550000  71.2090000 156.1710000  34.4140000  70.9830000 163.7100000
  34.1440000  71.6380000 163.0670000  35.2890000  71.2600000 163.9830000
  73.8640000  86.1090000 148.8680000  73.0660000  86.2330000 149.3810000
  73.6210000  86.3710000 147.9790000  40.6950000  31.8090000 157.1120000
  40.0440000  32.5100000 157.1440000  40.1790000  31.0060000 157.0330000
  87.2050000  69.5240000 136.9570000  87.8790000  70.1590000 136.7170000
  86.4170000  69.8270000 136.5040000  36.8610000  75.5140000 150.9950000
  37.4670000  75.7700000 151.6910000  36.7020000  74.5820000 151.1450000
  31.5370000  80.6950000 130.6320000  31.0440000  81.1990000 129.9850000
  31.0000000  79.9170000 130.7890000  53.2740000  77.2550000 138.5390000
  52.9340000  76.4280000 138.8800000  52.8610000  77.3480000 137.6800000
  50.3130000  35.0670000 163.9960000  51.1440000  35.5410000 164.0000000
  49.6450000  35.7530000 163.9940000  77.1920000  58.6960000 144.3400000
  77.0940000  58.0180000 145.0080000  76.5420000  59.3590000 144.5740000
  48.6460000  54.2350000 128.8020000  48.3180000  55.1320000 128.8590000
  47.8570000  53.6940000 128.7530000  62.6440000  34.2710000 127.1990000
  63.4510000  34.6630000 127.5310000  62.7660000  34.2360000 126.2500000
  46.4440000  78.0640000 148.1170000  45.9860000  77.2260000 148.1720000
  47.3680000  77.8280000 148.0360000  82.7230000  35.7020000 149.3040000
  81.9150000  35.9000000 149.7760000  82.4440000  35.5620000 148.3990000
  88.0930000  35.0700000 164.0000000  87.5030000  34.3180000 163.9680000
  88.9690000  34.6920000 163.9250000  71.9750000  66.9990000 146.9240000
  71.3390000  67.5010000 147.4320000  71.6930000  66.0880000 147.0200000
  48.3950000  83.5600000 147.0070000  48.2590000  82.6630000 146.7010000
  47.7730000  83.6650000 147.7280000  40.6920000  67.4900000 144.4850000
  40.6850000  67.4630000 145.4410000  40.9930000  66.6190000 144.2230000
  69.3470000  40.0550000 144.5120000  69.1110000  39.3480000 143.9120000
  70.2920000  39.9600000 144.6350000  88.5840000  46.6560000 126.6400000
  88.7680000  46.8040000 125.7130000  87.7360000  47.0760000 126.7860000
  84.2530000  73.5850000 146.3190000  84.1380000  72.6980000 146.6600000
  83.7330000  73.6030000 145.5150000  61.7330000  44.7960000 163.4360000
  61.1970000  44.2380000 164.0000000  62.4520000  45.0840000 163.9990000
  56.2410000  75.8240000 123.7150000  57.1360000  75.5230000 123.5590000
  55.6930000  75.0700000 123.5000000  43.5490000  60.6630000 133.9760000
  42.7290000  60.1700000 133.9980000  43.5000000  61.1740000 133.1680000
  33.2380000  74.6780000 148.4360000  32.7780000  74.0490000 147.8810000
  33.5740000  75.3350000 147.8260000  61.6850000  65.9720000 155.8140000
  62.2150000  65.1810000 155.7190000  60.7870000  65.6510000 155.8930000
  63.5750000  71.6470000 133.9330000  62.9660000  71.0590000 133.4860000
  63.3270000  71.5920000 134.8560000  66.6520000  71.9820000 132.5760000
  65.7090000  71.8250000 132.6170000  66.7360000  72.9350000 132.5540000
  46.0740000  51.4710000 139.6650000  45.6330000  52.0880000 139.0810000
  45.9050000  51.8100000 140.5450000  50.8000000  35.2510000 134.1110000
  51.3670000  35.9280000 133.7400000  49.9130000  35.5270000 133.8800000
  40.2970000  62.5670000 123.5720000  40.5380000  62.4040000 124.4840000
  40.2070000  63.5190000 123.5140000  88.8580000  56.4450000 129.7420000
  89.0000000  56.4680000 128.7960000  88.3150000  57.2120000 129.9220000
  79.1600000  82.0650000 132.8600000  78.7220000  82.4680000 133.6090000
  79.1390000  81.1260000 133.0460000  45.9310000  56.6810000 129.1290000
  46.4860000  56.8150000 128.3620000  46.5460000  56.5850000 129.8570000
  55.8810000  51.8600000 123.6140000  56.2600000  52.4730000 124.2440000
  56.5520000  51.1870000 123.5000000  72.7470000  43.1630000 150.1790000
  72.3690000  43.0700000 149.3050000  71.9980000  43.3490000 150.7460000
  85.3890000  89.0000000 159.0340000  84.5060000  88.9620000 158.6650000
  85.6210000  88.0850000 159.1950000  66.2280000  42.9260000 155.2090000
  65.4070000  42.4790000 155.4170000  66.8880000  42.4740000 155.7350000
  42.4560000  75.2240000 151.9350000  42.3130000  75.1730000 152.8800000
  42.2750000  76.1380000 151.7140000  61.6110000  83.5470000 134.0920000
  60.8900000  83.7290000 134.6950000  61.7360000  82.5990000 134.1470000
  55.8330000  55.3470000 155.3770000  55.1820000  54.6710000 155.1900000
  56.3260000  55.0050000 156.1240000  84.2220000  49.7310000 161.2060000
  83.6650000  49.1890000 161.7650000  84.2570000  50.5780000 161.6520000
  62.0920000  79.8790000 159.4500000  62.7740000  80.5450000 159.5320000
  62.5610000  79.0470000 159.5030000  72.9630000  70.3730000 144.0930000
  73.5900000  71.0920000 144.1780000  72.1780000  70.6850000 144.5430000
  41.5580000  62.6950000 130.6770000  41.6750000  63.4800000 130.1420000
  42.1900000  62.7940000 131.3900000  34.2660000  43.1150000 155.6060000
  34.9790000  42.4770000 155.5890000  34.7050000  43.9650000 155.6630000
  47.3330000  70.3720000 158.2280000  47.1940000  71.1490000 157.6880000
  47.7620000  69.7470000 157.6430000  83.0330000  75.0990000 162.4120000
  83.0820000  74.7240000 161.5330000  83.5390000  74.4970000 162.9580000
  36.3990000  81.5530000 149.1170000  36.3900000  80.6460000 148.8110000
  35.4800000  81.8210000 149.1010000  44.5810000  76.5610000 131.1030000
  44.9170000  77.3500000 130.6770000  44.7720000  75.8550000 130.4840000
  69.6910000  31.7960000 126.7910000  69.3770000  31.0000000 126.3630000
  70.1270000  31.4840000 127.5850000  57.1300000  43.2330000 142.4680000
  56.4140000  42.8590000 142.9810000  57.7150000  42.4940000 142.2980000
  56.7030000  36.0870000 149.4660000  56.8100000  35.7000000 148.5970000
  56.2390000  36.9090000 149.3070000  75.7140000  78.5860000 140.1140000
  76.4550000  78.9020000 140.6310000  75.8450000  78.9690000 139.2470000
  60.1000000  82.9630000 160.8590000  59.4850000  82.3690000 161.2900000
  60.7720000  82.3880000 160.4940000  50.0950000  34.1550000 131.7550000
  51.0120000  33.9700000 131.5520000  49.6350000  34.0260000 130.9260000
  50.4110000  80.9090000 154.4980000  49.9760000  81.6640000 154.1030000
  51.0410000  80.6220000 153.8370000  70.7940000  46.0240000 123.5790000
  70.1590000  45.3120000 123.5010000  70.2590000  46.8180000 123.6150000
  86.5380000  48.2700000 149.6320000  85.6850000  47.8670000 149.4710000
  86.8820000  48.4580000 148.7580000  79.4100000  31.7140000 158.1070000
  79.5560000  31.0000000 157.4870000  79.1150000  32.4460000 157.5650000
  51.8980000  86.5370000 126.7070000  52.4020000  86.6130000 125.8970000
  52.5390000  86.2680000 127.3650000  61.3900000  70.4100000 154.2760000
  61.3440000  70.3610000 153.3220000  60.5180000  70.1490000 154.5730000
  47.8050000  64.3130000 140.4810000  46.9070000  64.3080000 140.1520000
  47.9330000  63.4360000 140.8450000  36.7720000  88.1920000 146.5510000
  36.9430000  89.0000000 146.0680000  35.8950000  87.9260000 146.2720000
  58.4160000  39.8190000 142.0030000  57.8660000  40.0190000 142.7600000
  59.1850000  39.3840000 142.3730000  32.4990000  72.1040000 125.4050000
  33.0950000  72.0900000 126.1530000  32.2040000  73.0130000 125.3490000
  81.9860000  34.1690000 126.2000000  82.1860000  33.5950000 126.9390000
  82.7770000  34.6950000 126.0830000  35.5160000  75.4210000 131.0760000
  35.9970000  76.0860000 130.5840000  35.7850000  74.5900000 130.6850000
  69.3970000  44.3860000 131.5830000  69.4020000  45.2360000 132.0220000
  68.4700000  44.1960000 131.4380000  48.4920000  37.2980000 125.3030000
  48.9960000  37.0240000 124.5370000  48.8190000  38.1760000 125.5040000
  86.8940000  70.5220000 129.6880000  86.3080000  71.2780000 129.6740000
  87.2510000  70.4790000 128.8010000  47.8870000  66.1070000 161.2960000
  47.3100000  66.8540000 161.4520000  47.4640000  65.6220000 160.5860000
  60.9200000  79.2080000 162.0880000  60.1020000  79.5540000 161.7310000
  60.9020000  78.2760000 161.8690000  65.7750000  74.2580000 134.6330000
  65.3340000  75.1070000 134.6030000  65.0810000  73.6200000 134.4670000
  75.4170000  51.5900000 144.7280000  74.6940000  52.2150000 144.6750000
  75.9200000  51.7360000 143.9260000  43.9280000  58.7270000 145.1890000
  44.4960000  57.9780000 145.3690000  44.2820000  59.1100000 144.3860000
  34.5430000  69.6900000 132.1410000  34.8980000  68.8160000 131.9770000
  34.8230000  69.9000000 133.0320000  40.6860000  38.9730000 151.1040000
  41.5460000  38.8090000 151.4920000  40.6120000  38.3250000 150.4030000
  35.4000000  79.5800000 137.5370000  35.5700000  80.2550000 138.1940000
  36.0760000  78.9200000 137.6900000  44.6510000  65.4130000 158.5820000
  43.9030000  65.1430000 159.1140000  45.3980000  65.3700000 159.1790000
  69.4240000  31.0320000 160.5550000  69.9600000  31.0050000 161.3470000
  68.5220000  31.0000000 160.8740000  49.3640000  38.4380000 153.8510000
  48.9140000  39.0840000 153.3080000  48.8080000  38.3450000 154.6250000
  79.4750000  64.4250000 161.8030000  79.6000000  63.4900000 161.6450000
  80.3570000  64.7960000 161.7550000  43.4830000  75.9010000 133.5180000
  43.9760000  76.6580000 133.8360000  44.1540000  75.2900000 133.2120000
  88.7830000  36.1660000 129.5230000  87.8630000  35.9060000 129.5660000
  88.9550000  36.2910000 128.5900000  89.0000000  40.2750000 157.0060000
  88.6930000  41.1810000 157.0050000  88.7570000  39.9400000 157.8700000
  40.2770000  73.9830000 124.7620000  40.6770000  73.3160000 125.3200000
  39.9790000  73.5020000 123.9900000  49.2540000  67.8810000 153.4690000
  49.7740000  67.0820000 153.5550000  49.7810000  68.4500000 152.9080000
  56.3120000  71.2390000 134.6600000  55.6210000  70.5940000 134.5090000
  57.0310000  70.7350000 135.0410000  77.6560000  35.8840000 155.1730000
  77.8380000  36.8220000 155.2290000  76.7000000  35.8270000 155.1480000
  42.7840000  56.6500000 130.8360000  43.4450000  56.9780000 130.2260000
  43.2560000  56.0290000 131.3910000  55.9960000  56.7040000 135.5890000
  55.3710000  56.4470000 134.9110000  56.8530000  56.4890000 135.2200000
  65.6560000  48.8290000 162.5720000  65.3870000  49.7470000 162.5680000
  66.5960000  48.8550000 162.7520000  78.7400000  44.7660000 152.0800000
  78.5410000  45.5880000 152.5280000  77.9440000  44.5600000 151.5900000
  70.7500000  60.8410000 163.9840000  69.8150000  61.0390000 163.9230000
  71.1760000  61.6990000 164.0000000  73.3240000  47.3920000 127.4690000
  73.1550000  46.9800000 128.3160000  74.0760000  47.9630000 127.6250000
  78.1280000  53.3510000 142.7540000  77.7510000  54.1120000 142.3120000
  78.9910000  53.6470000 143.0460000  58.6660000  81.6120000 149.3110000
  58.2380000  81.1320000 150.0190000  59.6000000  81.4330000 149.4290000
  48.0310000  82.3960000 141.5860000  48.4240000  81.5240000 141.6060000
  47.6400000  82.4640000 140.7150000  39.3770000  31.1490000 129.5710000
  38.6130000  31.0000000 129.0140000  40.1260000  31.0450000 128.9840000
  68.7510000  67.2640000 135.8370000  68.8370000  66.3180000 135.9520000
  69.6290000  67.5580000 135.5930000  72.3160000  65.9010000 123.7500000
  72.2650000  66.4000000 124.5650000  73.2450000  65.9170000 123.5170000
  64.7280000  54.4690000 138.0690000  64.0670000  54.9930000 137.6170000
  65.1410000  55.0800000 138.6800000  59.5860000  88.9310000 131.7780000
  60.5070000  89.0000000 131.5250000  59.5940000  88.9970000 132.7340000
  78.0910000  48.6210000 136.5460000  78.4080000  48.9920000 137.3700000
  77.3090000  48.1260000 136.7920000  83.6050000  63.8580000 131.2000000
  84.0360000  63.3200000 130.5360000  84.0670000  64.6960000 131.1680000
  87.8740000  67.5460000 163.9830000  88.1810000  68.4520000 163.9610000
  88.6750000  67.0220000 164.0000000  58.0130000  71.4410000 130.5830000
  58.3130000  70.6660000 130.1080000  58.6560000  72.1170000 130.3690000
  49.9730000  31.0000000 138.7130000  49.1770000  31.3310000 139.1280000
  49.7860000  31.0320000 137.7750000  31.0290000  36.0300000 138.3870000
  31.0900000  35.2700000 138.9660000  31.6910000  36.6370000 138.7180000
  66.3440000  58.3440000 127.9790000  66.5670000  59.2580000 128.1540000
  65.8360000  58.0700000 128.7430000  43.9000000  54.6050000 150.6860000
  43.5030000  55.4190000 150.3770000  44.1260000  54.7790000 151.6000000
  44.9990000  35.2030000 145.8500000  44.2800000  34.5720000 145.8210000
  45.7500000  34.7270000 145.4930000  80.2710000  61.1650000 124.2450000
  80.5140000  61.7140000 123.5000000  80.8710000  61.4290000 124.9430000
  86.8010000  44.1830000 136.0850000  86.8660000  44.2960000 135.1370000
  86.6190000  43.2500000 136.2030000  82.0200000  84.6370000 150.0170000
  82.4950000  84.4760000 150.8320000  81.5480000  83.8200000 149.8500000
  55.9300000  76.5200000 142.7650000  55.8250000  75.7370000 142.2260000
  56.6420000  77.0050000 142.3480000  77.5010000  78.9780000 148.1270000
  78.1820000  78.3070000 148.1710000  77.8310000  79.6920000 148.6720000
  54.0470000  52.0530000 156.4500000  53.4200000  52.7740000 156.4940000
  54.8990000  52.4810000 156.3630000  69.4530000  82.0860000 145.2880000
  68.5870000  82.1730000 144.8900000  69.7610000  82.9870000 145.3920000
  51.3030000  43.0070000 131.2450000  51.6380000  42.9730000 132.1410000
  52.0530000  42.7710000 130.6990000  37.5090000  58.4070000 134.5460000
  36.7580000  58.4240000 135.1390000  38.0110000  57.6380000 134.8160000
  79.8600000  86.5180000 129.2530000  79.1720000  85.9490000 129.5970000
  80.6760000  86.0590000 129.4550000  66.5830000  33.2770000 163.3190000
  66.3370000  33.1090000 162.4100000  65.7500000  33.3060000 163.7920000
  33.2410000  83.0640000 151.2630000  34.1510000  82.7690000 151.2960000
  33.2960000  83.9850000 151.0070000  72.0910000  46.0990000 125.7150000
  72.1280000  45.4340000 126.4020000  71.3330000  46.6380000 125.9420000
  51.2830000  36.3440000 157.9890000  52.2350000  36.2610000 158.0360000
  50.9570000  35.7880000 158.6970000  43.0830000  53.8060000 153.6820000
  42.9680000  54.2780000 154.5060000  42.7770000  52.9180000 153.8690000
  48.8650000  44.2090000 131.2000000  49.2400000  44.0810000 130.3280000
  49.5270000  44.7140000 131.6730000  58.4340000  59.9190000 124.1000000
  59.1740000  60.0060000 123.5000000  58.7280000  59.2820000 124.7520000
  50.6520000  58.6980000 157.7490000  49.8240000  58.5200000 158.1960000
  50.7230000  58.0050000 157.0920000  42.9830000  38.7050000 161.6940000
  42.6220000  37.9350000 161.2540000  43.9000000  38.7310000 161.4190000
  78.9750000  48.7420000 133.3290000  78.6320000  49.1580000 134.1200000
  79.9130000  48.6450000 133.4950000  81.0230000  37.2240000 126.6490000
  80.9370000  37.2230000 125.6960000  80.9000000  36.3090000 126.9020000
  31.0000000  71.1610000 159.8100000  31.1830000  70.2210000 159.7950000
  31.8440000  71.5660000 160.0090000  53.4420000  33.1090000 157.5500000
  53.3800000  32.7120000 156.6820000  53.1160000  34.0020000 157.4290000
  48.0910000  40.3400000 143.9260000  47.5520000  39.8370000 144.5360000
  48.0090000  41.2460000 144.2240000  88.7930000  50.8460000 154.1240000
  88.8060000  51.5440000 153.4700000  89.0000000  50.0510000 153.6320000
  60.2810000  71.2850000 123.5000000  59.7770000  71.9160000 124.0140000
  61.1870000  71.5870000 123.5710000  85.8640000  39.7560000 163.1560000
  85.2060000  40.1860000 162.6100000  86.6900000  40.1720000 162.9110000
  76.2500000  47.5250000 163.9580000  75.4570000  47.0030000 163.8430000
  76.9580000  46.8810000 164.0000000  49.3590000  50.4730000 133.1770000
  50.0140000  51.1210000 133.4350000  48.5190000  50.8970000 133.3550000
  33.6970000  73.6050000 131.6440000  33.7190000  72.6980000 131.9490000
  32.9990000  74.0140000 132.1550000  45.0040000  31.5860000 131.0240000
  44.3350000  31.0000000 130.6710000  45.7200000  31.0040000 131.2820000
  37.8040000  40.2710000 163.9800000  37.7420000  40.0340000 163.0550000
  38.4290000  40.9960000 164.0000000  76.7040000  44.3990000 123.5010000
  75.8470000  43.9730000 123.5020000  77.3320000  43.6770000 123.5000000
  72.8680000  41.1800000 144.3260000  73.7490000  41.5210000 144.4750000
  72.9810000  40.2300000 144.2880000  76.8500000  59.1960000 147.9950000
  76.6590000  59.3610000 147.0710000  77.7050000  58.7670000 147.9900000
  76.4750000  43.4760000 142.1900000  76.3660000  44.2640000 142.7230000
  75.8690000  42.8410000 142.5730000  32.9490000  72.2030000 155.0040000
  32.6880000  73.0190000 154.5770000  33.0540000  71.5790000 154.2860000
  73.4470000  85.6000000 163.9990000  72.5090000  85.4090000 163.9990000
  73.4960000  86.5570000 164.0000000  63.8840000  79.4470000 157.2750000
  64.5860000  78.8330000 157.4880000  63.1350000  78.8900000 157.0580000
  31.1010000  72.4150000 149.4470000  31.0000000  71.5010000 149.7110000
  31.0000000  72.4020000 148.4950000  55.1680000  77.9580000 145.1360000
  55.7550000  78.3330000 144.4800000  55.4270000  77.0370000 145.1910000
  60.8520000  47.6290000 145.9230000  61.1500000  48.0540000 146.7260000
  61.4620000  46.9010000 145.7960000  45.5150000  74.4590000 158.8780000
  44.7580000  74.0980000 159.3380000  46.0880000  73.7070000 158.7310000
  61.6290000  57.1090000 159.2720000  61.6170000  57.4680000 160.1590000
  62.3570000  56.4870000 159.2750000  40.1210000  31.5920000 146.0390000
  40.5500000  31.0160000 146.6710000  39.7780000  31.0000000 145.3690000
  42.5170000  71.8370000 142.8830000  43.3570000  71.5340000 142.5370000
  42.7280000  72.6460000 143.3500000  72.3610000  73.3480000 157.0080000
  73.2600000  73.6610000 156.9160000  72.4490000  72.4110000 157.1840000
  49.0880000  51.0180000 123.7230000  49.4090000  50.1190000 123.6520000
  48.1580000  50.9590000 123.5000000  62.6700000  53.0970000 139.0090000
  63.4620000  52.6710000 139.3360000  62.5280000  53.8320000 139.6060000
  59.8970000  50.8690000 150.5710000  60.0590000  51.8120000 150.5710000
  60.7700000  50.4750000 150.5690000  64.5190000  34.9850000 123.5000000
  63.7150000  34.6880000 123.9270000  65.0970000  34.2220000 123.5200000
  45.4340000  59.6580000 129.2820000  45.2020000  59.7960000 130.2000000
  46.3440000  59.3610000 129.3060000  73.3450000  54.6890000 128.0520000
  72.5460000  55.2140000 128.0030000  74.0550000  55.3310000 128.0570000
  73.2120000  75.3940000 151.7510000  73.4960000  75.7520000 150.9100000
  72.6660000  74.6420000 151.5210000  89.0000000  88.9290000 154.7640000
  88.9830000  89.0000000 155.7180000  88.0800000  88.9760000 154.5040000
  53.9190000  70.2980000 150.5630000  54.3300000  71.0100000 150.0730000
  54.6510000  69.8320000 150.9670000  75.5090000  36.5250000 151.4650000
  74.6780000  36.9490000 151.2520000  75.3280000  35.5880000 151.3880000
  66.7300000  43.7080000 161.5810000  67.5360000  44.1600000 161.3290000
  66.0390000  44.3560000 161.4470000  34.4590000  52.5570000 158.4210000
  33.6480000  52.2140000 158.7970000  35.0340000  51.7950000 158.3550000
  59.2200000  31.6000000 123.5780000  59.9210000  31.0000000 123.8320000
  58.4450000  31.0430000 123.5000000  81.3340000  69.0960000 142.9060000
  81.9410000  68.6750000 142.2970000  81.5310000  70.0300000 142.8340000
  68.0280000  82.1390000 128.1970000  68.1540000  82.1260000 129.1450000
  68.2010000  81.2390000 127.9190000  80.3290000  85.8730000 161.5300000
  79.6030000  86.3210000 161.9640000  80.2880000  86.1730000 160.6220000
  78.3650000  78.2730000 132.5870000  79.0540000  77.8420000 132.0810000
  77.8430000  78.7380000 131.9330000  48.3920000  31.1530000 156.5620000
  47.6620000  31.0000000 155.9630000  48.6990000  32.0340000 156.3450000
  71.2610000  88.1250000 148.7430000  71.5190000  88.9710000 148.3770000
  71.2250000  87.5380000 147.9870000  33.6470000  88.7240000 161.8720000
  33.6090000  87.7690000 161.9160000  34.1910000  88.9770000 162.6190000
  52.6690000  33.4360000 149.8000000  52.9120000  32.5570000 150.0880000
  52.4950000  33.9150000 150.6110000  57.4410000  40.5780000 128.6490000
  57.1170000  39.7320000 128.3410000  57.9130000  40.9420000 127.8990000
  71.5940000  51.4230000 158.5660000  72.4980000  51.6730000 158.3760000
  71.4530000  51.7040000 159.4700000  47.5770000  48.4440000 123.9460000
  48.1710000  47.8330000 123.5120000  46.7230000  48.2760000 123.5460000
  77.0160000  84.7920000 163.6150000  77.3940000  85.6070000 163.9450000
  76.1390000  84.7620000 164.0000000  69.2880000  66.9680000 153.2150000
  68.6230000  67.5830000 153.5230000  69.2420000  67.0220000 152.2600000
  72.2220000  54.2140000 146.3110000  72.9070000  53.6150000 146.0150000
  71.4160000  53.6970000 146.2660000  88.9440000  46.0300000 162.7690000
  89.0000000  46.5680000 163.5590000  89.0000000  46.6580000 162.0480000
  60.5610000  61.2830000 152.6600000  61.1480000  61.9560000 152.3150000
  60.9190000  60.4590000 152.3300000  81.2560000  50.2640000 140.2980000
  81.9700000  49.8940000 139.7780000  80.5640000  49.6050000 140.2590000
  86.6540000  74.4150000 158.3110000  86.3970000  73.8540000 157.5790000
  87.6090000  74.4630000 158.2530000  81.7390000  56.0320000 139.4500000
  81.1590000  56.6630000 139.0240000  82.3830000  56.5720000 139.9100000
  56.0110000  73.5260000 163.9370000  56.9470000  73.3370000 164.0000000
  55.9550000  74.4800000 163.9950000  47.0890000  78.6750000 163.2930000
  46.9620000  77.8790000 163.8090000  47.6390000  78.4000000 162.5580000
  48.2170000  86.0650000 138.9650000  48.9170000  86.5120000 138.4890000
  47.5840000  85.8230000 138.2890000  38.2220000  69.3150000 131.7430000
  38.0390000  68.8780000 130.9120000  37.4270000  69.1860000 132.2620000
  34.2040000  63.8340000 146.6220000  34.2280000  64.6000000 147.1960000
  33.4140000  63.9540000 146.0950000  36.0950000  32.7800000 147.9550000
  35.2490000  32.7080000 148.3960000  36.7220000  32.4110000 148.5780000
  51.1320000  89.0000000 138.0980000  50.3890000  88.6800000 138.6110000
  51.8730000  88.9680000 138.7040000  73.6380000  60.5070000 143.6020000
  74.1350000  59.7270000 143.8500000  73.1620000  60.2470000 142.8120000
  82.4090000  38.7040000 147.9540000  83.0130000  37.9790000 148.1090000
  81.5450000  38.2930000 147.9180000  74.7980000  77.9690000 164.0000000
  75.5310000  77.3570000 163.9510000  74.0190000  77.4160000 163.9390000
  45.6940000  67.0860000 139.6450000  46.5560000  66.7730000 139.9170000
  45.8280000  68.0120000 139.4420000  44.8300000  84.7400000 150.5660000
  43.9290000  84.4340000 150.4630000  44.7460000  85.6770000 150.7450000
  31.0000000  52.0370000 128.5000000  31.3520000  52.5330000 127.7620000
  31.5570000  51.2600000 128.5540000  88.6110000  75.0900000 153.2370000
  87.6820000  75.2390000 153.0600000  89.0000000  74.9440000 152.3740000
  87.0260000  54.1400000 129.1490000  86.9330000  53.4050000 128.5420000
  87.9540000  54.1410000 129.3830000  49.7690000  76.5910000 163.8010000
  49.4590000  77.4740000 164.0000000  48.9850000  76.0440000 163.8490000
  37.2960000  73.6060000 142.4730000  38.0930000  73.9080000 142.9090000
  36.5830000  73.9470000 143.0140000  57.0650000  42.4900000 139.6060000
  56.2330000  42.0850000 139.3630000  56.8210000  43.3520000 139.9460000
  34.9630000  40.5720000 134.3090000  35.0730000  40.8840000 133.4110000
  34.7770000  41.3620000 134.8160000  43.3260000  65.7340000 153.8630000
  43.0420000  65.7920000 154.7760000  42.8290000  66.4170000 153.4140000
  58.8640000  42.2810000 145.2070000  58.6470000  41.5400000 144.6430000
  58.2240000  42.9550000 144.9760000  77.6630000  43.1490000 149.1630000
  77.8310000  44.0790000 149.0130000  78.3430000  42.8800000 149.7820000
  62.9990000  55.4660000 147.7460000  63.0540000  54.5340000 147.5380000
  63.3560000  55.9060000 146.9740000  52.9160000  53.0170000 143.8680000
  53.6240000  53.6140000 143.6270000  53.2550000  52.1460000 143.6580000
  64.4800000  72.8260000 124.0860000  65.2320000  72.9140000 123.5000000
  63.7310000  72.7120000 123.5000000  72.9990000  55.4010000 123.5040000
  72.3390000  54.7070000 123.5010000  73.8360000  54.9360000 123.5000000
  44.5180000  77.3180000 139.5310000  45.2570000  77.2590000 140.1360000
  44.7040000  76.6610000 138.8600000  73.5760000  85.6840000 151.9430000
  74.3370000  85.1190000 152.0770000  73.9070000  86.5700000 152.0860000
  35.3720000  85.9320000 141.7830000  35.4660000  85.2140000 141.1580000
  36.2690000  86.1420000 142.0440000  44.6660000  36.6920000 148.2980000
  44.0890000  37.3720000 148.6460000  44.0760000  35.9850000 148.0390000
  56.5960000  56.7840000 153.4790000  56.5460000  57.4660000 154.1480000
  55.6990000  56.7030000 153.1520000  80.7930000  75.1750000 153.2990000
  81.6470000  75.5820000 153.4430000  80.5000000  74.9180000 154.1740000
  55.1820000  32.8260000 161.8240000  54.4110000  33.3920000 161.8460000
  54.8280000  31.9410000 161.7310000  46.3630000  66.3860000 132.8680000
  46.2950000  67.3360000 132.9570000  45.5090000  66.0570000 133.1520000
  83.3150000  46.7160000 142.7190000  83.3130000  46.0710000 142.0120000
  83.9720000  46.3940000 143.3360000  56.3770000  57.1500000 139.8100000
  56.8450000  57.1330000 140.6450000  56.6490000  57.9720000 139.4000000
  58.7950000  40.0770000 147.2590000  59.4050000  39.7880000 146.5810000
  57.9620000  40.1920000 146.8000000  39.4220000  75.5880000 140.0800000
  38.9640000  76.4280000 140.0470000  40.3500000  75.8220000 140.1190000
  42.1870000  84.9010000 155.4080000  41.2590000  84.6720000 155.4560000
  42.1940000  85.8180000 155.1350000  66.3190000  83.1430000 145.2970000
  65.7030000  82.9250000 144.5980000  66.6660000  84.0010000 145.0520000
  50.5990000  61.8750000 128.7460000  51.4660000  61.9570000 129.1430000
  50.7690000  61.8290000 127.8050000  68.9940000  53.2850000 159.3430000
  69.8790000  53.6450000 159.4060000  69.0440000  52.6520000 158.6260000
  46.2090000  60.6160000 156.4080000  46.2110000  59.6650000 156.3070000
  45.2830000  60.8470000 156.4860000  79.6060000  78.0650000 140.4000000
  80.4580000  78.4530000 140.5980000  79.7940000  77.1390000 140.2450000
  63.2060000  37.7650000 137.8840000  62.5230000  37.2370000 138.2970000
  63.4310000  37.2850000 137.0860000  49.7350000  66.2610000 128.3040000
  49.2230000  65.4880000 128.0710000  50.5180000  65.9110000 128.7290000
  82.9630000  46.5350000 147.2420000  82.3110000  47.1680000 146.9440000
  82.8980000  46.5550000 148.1970000  31.3240000  51.7050000 160.4330000
  31.0000000  50.8250000 160.2390000  32.1650000  51.5600000 160.8680000
  82.7140000  38.6450000 151.4180000  82.1200000  38.3390000 150.7330000
  82.8060000  39.5840000 151.2540000  75.5250000  77.8250000 127.6180000
  75.1790000  77.6010000 126.7540000  76.2950000  77.2660000 127.7200000
  33.2320000  88.9910000 147.5230000  32.3050000  89.0000000 147.7600000
  33.2890000  88.3660000 146.8000000  52.8190000  49.6400000 161.6450000
  52.2770000  50.4180000 161.7750000  52.2050000  48.9070000 161.7030000
  41.4740000  51.5100000 129.8400000  40.7500000  51.9650000 129.4110000
  42.1110000  51.3590000 129.1410000  41.9290000  40.3400000 130.2900000
  41.8940000  39.4340000 130.5950000  42.8080000  40.6390000 130.5250000
  88.0330000  60.1720000 125.4650000  88.9600000  60.3870000 125.3560000
  87.8070000  60.5210000 126.3280000  46.1610000  67.1780000 145.8310000
  46.7860000  67.1710000 146.5560000  46.2640000  66.3210000 145.4160000
  68.3110000  85.5170000 149.2760000  69.0150000  86.1200000 149.0390000
  68.7600000  84.7560000 149.6450000  71.8030000  65.7750000 134.7690000
  71.5370000  66.2800000 134.0010000  71.8660000  66.4230000 135.4720000
  34.0980000  58.7580000 136.3360000  33.7600000  59.3720000 136.9880000
  34.3890000  59.3130000 135.6120000  36.1520000  73.5600000 135.2020000
  36.2040000  74.5150000 135.2410000  35.4930000  73.3830000 134.5300000
  33.5030000  84.0930000 145.2500000  33.9040000  84.7890000 144.7290000
  33.3770000  83.3730000 144.6320000  58.2160000  59.2650000 130.2100000
  58.8170000  58.8300000 130.8140000  57.4940000  58.6450000 130.1030000
  88.9770000  85.7490000 127.5570000  89.0000000  85.4520000 128.4660000
  89.0000000  86.7040000 127.6160000  35.9990000  65.6640000 132.4450000
  36.4400000  64.8970000 132.0790000  36.6830000  66.3320000 132.4960000
  71.5810000  84.8790000 157.5780000  70.9860000  84.1810000 157.8530000
  71.1100000  85.6880000 157.7810000  85.2580000  59.1750000 125.4590000
  85.4920000  60.0790000 125.2520000  85.9300000  58.8880000 126.0770000
  83.3410000  60.3520000 161.4360000  84.0490000  60.2100000 162.0630000
  82.5900000  60.6020000 161.9750000  71.6180000  65.3600000 154.4630000
  72.1490000  66.1340000 154.6510000  72.1140000  64.8860000 153.7950000
  73.2730000  50.0170000 134.6480000  73.7360000  50.8440000 134.7780000
  72.5790000  50.2250000 134.0230000  67.8640000  58.7070000 149.8760000
  67.4470000  57.8760000 150.0990000  68.7870000  58.4860000 149.7470000
  71.0270000  49.2060000 127.8070000  70.7150000  48.7370000 128.5800000
  70.5810000  50.0530000 127.8440000  34.6510000  55.2260000 149.1220000
  35.5670000  55.2250000 149.3980000  34.2370000  54.5530000 149.6620000
  45.8900000  43.5980000 157.1710000  46.0720000  43.4990000 156.2370000
  45.8110000  42.7000000 157.4960000  81.6180000  63.3150000 157.3940000
  81.9350000  63.7620000 158.1790000  81.3180000  64.0210000 156.8210000
  38.5730000  63.4750000 153.7650000  39.2690000  62.8540000 153.5510000
  37.9690000  62.9780000 154.3180000  78.1710000  37.0900000 146.4100000
  78.9780000  37.4890000 146.0830000  77.5090000  37.7750000 146.3150000
  34.3210000  80.3710000 152.7110000  34.6440000  80.9950000 153.3610000
  33.3710000  80.4900000 152.7140000  34.5910000  75.7740000 143.4760000
  33.8710000  76.1830000 142.9970000  35.0990000  76.5100000 143.8190000
  55.8160000  60.0920000 125.5520000  56.2830000  59.3180000 125.8670000
  54.9010000  59.8140000 125.4970000  42.2450000  78.2600000 159.2720000
  43.1180000  77.9210000 159.4690000  41.7490000  77.4930000 158.9860000
  41.3160000  78.3400000 148.8470000  41.7590000  77.6670000 149.3640000
  40.8320000  78.8570000 149.4910000  65.5630000  36.7380000 129.8400000
  66.4050000  37.1900000 129.7920000  65.4050000  36.4280000 128.9470000
  56.5260000  71.4980000 151.9110000  57.3600000  71.9630000 151.8440000
  56.7660000  70.6140000 152.1900000  88.0750000  58.2340000 161.7310000
  88.2720000  58.9370000 161.1130000  88.6450000  57.5120000 161.4630000
  84.7590000  36.5930000 150.5260000  84.3920000  36.6250000 151.4100000
  84.4080000  37.3710000 150.0920000  51.7690000  73.8620000 157.5040000
  52.2140000  74.6120000 157.1110000  50.8600000  74.1470000 157.6040000
  51.1290000  65.1400000 161.7080000  50.7580000  65.1830000 160.8270000
  51.4410000  66.0290000 161.8810000  50.9780000  73.7690000 163.9340000
  51.3160000  74.6300000 163.6870000  50.0550000  73.7910000 163.6790000
  69.0030000  55.8320000 153.4520000  68.4660000  56.3700000 154.0330000
  68.7900000  54.9300000 153.6950000  45.5670000  53.2530000 126.3270000
  45.5310000  52.4490000 126.8450000  45.7760000  52.9580000 125.4410000
  38.0940000  60.0630000 145.3880000  38.0470000  59.6900000 144.5080000
  37.2220000  59.9160000 145.7570000  38.3090000  42.1050000 126.7240000
  37.9380000  41.6880000 127.5020000  38.8080000  41.4090000 126.2950000
  40.3890000  71.0680000 123.5880000  40.1340000  70.1500000 123.5000000
  41.0450000  71.0690000 124.2860000  82.9760000  69.0430000 152.0230000
  82.7830000  69.9450000 151.7670000  83.5380000  69.1260000 152.7940000
  59.1740000  77.9190000 126.5890000  59.4730000  77.8550000 127.4960000
  58.8700000  77.0370000 126.3740000  80.5890000  56.2140000 156.8680000
  79.6590000  56.0510000 157.0250000  80.6600000  57.1670000 156.8180000
  87.3590000  88.4530000 161.3080000  86.6970000  89.0000000 161.7290000
  88.1450000  89.0000000 161.2860000  52.9050000  74.0810000 132.3190000
  52.0160000  73.8220000 132.5610000  53.2450000  74.5260000 133.0960000
  53.8470000  52.7170000 139.1530000  53.3840000  53.5470000 139.0400000
  54.7720000  52.9610000 139.1860000  51.0650000  37.1610000 138.2700000
  50.2040000  37.5310000 138.0760000  51.6700000  37.8960000 138.1680000
  69.2530000  59.0720000 152.1320000  70.1790000  59.1840000 151.9180000
  69.1510000  58.1300000 152.2670000  36.6220000  83.7420000 142.9940000
  35.6810000  83.5760000 143.0340000  37.0240000  82.8890000 143.1630000
  57.5300000  50.3060000 161.0060000  56.8890000  49.5970000 160.9530000
  58.2340000  50.0390000 160.4150000  43.8300000  33.5750000 142.6930000
  44.7720000  33.7250000 142.7690000  43.4700000  33.8830000 143.5250000
  48.5960000  70.8480000 153.0620000  49.4830000  71.1430000 153.2650000
  48.6270000  70.6150000 152.1340000  75.3650000  46.2820000 152.9790000
  74.5760000  45.8200000 152.6990000  76.0640000  45.6310000 152.9050000
  84.0930000  42.7430000 154.6210000  84.7000000  42.0640000 154.3270000
  83.6220000  43.0030000 153.8280000  55.8830000  58.0420000 123.5010000
  56.8400000  58.0360000 123.5030000  55.6370000  57.1160000 123.5000000
  33.8520000  31.0890000 129.7650000  33.7210000  31.0000000 128.8210000
  33.9180000  32.0330000 129.9100000  53.0830000  36.3280000 146.5300000
  53.5480000  37.1440000 146.7110000  53.7730000  35.7020000 146.3080000
  58.1870000  36.7130000 123.9520000  57.4060000  36.3950000 123.5000000
  58.9160000  36.2850000 123.5010000  45.0110000  62.8240000 160.5580000
  45.8600000  63.1860000 160.3050000  44.9440000  63.0020000 161.4970000
  62.8980000  85.6450000 148.8340000  63.0270000  85.3840000 149.7460000
  62.2550000  85.0220000 148.4940000  79.9450000  81.6840000 147.4390000
  80.3640000  81.0920000 148.0640000  80.0460000  82.5540000 147.8270000
  64.0110000  40.2740000 138.0790000  64.2390000  40.3870000 137.1560000
  63.4640000  41.0330000 138.2850000  59.9440000  68.3480000 131.4820000
  60.1000000  69.1950000 131.0650000  59.1690000  68.0010000 131.0390000
  65.0530000  70.1230000 123.5000000  64.1190000  69.9170000 123.5240000
  65.3200000  70.1320000 124.4200000  83.6540000  69.8500000 144.5810000
  83.1740000  69.0260000 144.6610000  83.5650000  70.2630000 145.4410000
  75.2980000  53.8110000 141.9340000  74.5580000  53.5240000 142.4690000
  75.2610000  53.2550000 141.1560000  34.1230000  76.7480000 150.7620000
  34.3330000  76.7670000 149.8290000  34.3150000  75.8500000 151.0330000
  80.9090000  70.3960000 154.2000000  80.0090000  70.1630000 154.4270000
  81.2410000  69.6350000 153.7230000  50.9090000  64.2210000 140.8200000
  51.7600000  63.8750000 140.5530000  50.3940000  64.2420000 140.0130000
  37.0530000  54.0080000 157.0950000  36.5320000  54.6750000 157.5420000
  36.4350000  53.2950000 156.9270000  80.6540000  46.2170000 131.6530000
  81.4470000  46.2270000 132.1890000  80.4140000  47.1400000 131.5640000
  43.3730000  63.9510000 126.0580000  42.7060000  64.6270000 126.1800000
  44.1880000  64.4390000 125.9300000  78.0920000  61.2310000 145.4510000
  78.5080000  60.4320000 145.7750000  78.8160000  61.8450000 145.3260000
  57.9760000  50.1850000 131.0070000  58.6700000  50.7700000 130.7040000
  57.2960000  50.7710000 131.3400000  38.9480000  84.0970000 163.8720000
  38.5410000  83.9270000 163.0230000  39.5520000  83.3650000 164.0000000
  51.4210000  62.2060000 147.7820000  51.6140000  62.5430000 148.6570000
  52.2280000  61.7690000 147.5100000  88.8640000  77.2690000 128.2540000
  89.0000000  77.7980000 127.4680000  87.9260000  77.3370000 128.4300000
  52.0620000  58.4960000 142.4210000  51.7290000  57.6540000 142.7320000
  52.6630000  58.7850000 143.1080000  34.7720000  50.9520000 137.0530000
  34.6020000  51.6460000 137.6900000  33.9210000  50.5340000 136.9210000
  56.9960000  53.2090000 151.3930000  57.5640000  52.4420000 151.4700000
  57.2850000  53.7930000 152.0950000  85.5420000  61.4080000 160.0650000
  86.2830000  60.9190000 160.4240000  85.9360000  62.1860000 159.6700000
  50.2980000  69.0390000 150.0190000  49.4130000  69.1350000 149.6660000
  50.4450000  69.8410000 150.5200000  78.1850000  60.8390000 157.7190000
  77.4960000  61.0560000 157.0920000  77.9030000  61.2490000 158.5370000
  32.7080000  45.6440000 141.5140000  32.3700000  44.7550000 141.6140000
  32.0400000  46.2020000 141.9130000  89.0000000  65.4060000 145.5390000
  88.0760000  65.6390000 145.6260000  88.9990000  64.4530000 145.4460000
  78.0110000  88.8090000 155.5980000  77.3320000  88.9080000 154.9310000
  78.8290000  89.0000000 155.1390000  82.6590000  49.5040000 142.8900000
  82.0880000  48.8780000 142.4450000  82.8410000  50.1740000 142.2300000
  39.7870000  86.5610000 134.5180000  38.8820000  86.8560000 134.6160000
  39.8010000  86.1020000 133.6780000  65.9950000  62.7260000 123.5340000
  65.0960000  62.4070000 123.6170000  66.4600000  62.3270000 124.2700000
  47.2490000  85.4070000 156.0660000  47.5070000  84.9900000 156.8880000
  46.6170000  84.8010000 155.6780000  48.1440000  72.3140000 145.5650000
  48.6440000  72.5790000 144.7930000  47.2810000  72.0800000 145.2230000
  69.6330000  34.0300000 129.7930000  70.5450000  34.2630000 129.9640000
  69.4920000  33.2270000 130.2960000  72.3170000  88.8130000 140.3440000
  71.8730000  89.0000000 139.5170000  73.2410000  88.9910000 140.1660000
  53.1740000  74.0300000 144.2260000  52.6130000  74.3950000 144.9100000
  53.8210000  74.7150000 144.0560000  31.0000000  48.8710000 158.4240000
  31.0520000  48.2900000 159.1830000  31.0720000  48.2860000 157.6690000
  50.0260000  43.8930000 123.5000000  49.7410000  42.9800000 123.5420000
  49.2150000  44.4000000 123.5410000  76.3560000  53.5010000 148.0130000
  77.1060000  54.0450000 148.2520000  76.5490000  52.6450000 148.3960000
  83.7820000  69.2790000 140.0080000  84.6720000  69.0660000 139.7290000
  83.3610000  68.4290000 140.1370000  86.0170000  63.1580000 140.9230000
  86.3780000  62.3510000 140.5570000  85.5590000  62.8780000 141.7160000
  82.5310000  45.6960000 134.6040000  83.4740000  45.5320000 134.6170000
  82.4530000  46.6490000 134.6470000  82.6410000  61.9310000 126.6630000
  82.8190000  62.3180000 127.5200000  83.1030000  61.0920000 126.6780000
  33.5960000  87.0980000 143.5260000  33.4720000  87.3070000 144.4520000
  33.1670000  87.8140000 143.0580000  67.3360000  76.4610000 151.3120000
  66.5700000  76.4170000 151.8830000  67.4440000  77.3940000 151.1270000
  51.2940000  68.6950000 131.2590000  50.4790000  68.4730000 130.8110000
  51.9780000  68.2760000 130.7350000  82.7820000  53.4900000 140.3610000
  82.3960000  52.9660000 139.6590000  82.5240000  53.0390000 141.1660000
  84.0970000  34.5380000 136.9960000  84.1140000  33.7060000 137.4680000
  83.4000000  35.0400000 137.4190000  62.6490000  33.5320000 136.2910000
  62.7100000  34.4810000 136.1850000  63.3720000  33.1850000 135.7670000
  33.7980000  69.3580000 142.3130000  34.4460000  70.0560000 142.4050000
  33.0860000  69.7560000 141.8130000  72.7500000  83.6010000 150.0650000
  73.6890000  83.6700000 149.8900000  72.4490000  82.9000000 149.4860000
  51.8540000  83.2010000 151.5420000  51.0000000  83.1870000 151.9730000
  51.6860000  82.8560000 150.6650000  40.6170000  54.0360000 142.2310000
  40.7660000  53.1940000 141.8000000  41.2780000  54.0700000 142.9230000
  41.0930000  62.2440000 139.6580000  41.1190000  61.2900000 139.5930000
  41.7460000  62.5460000 139.0260000  79.3910000  31.0000000 128.2870000
  79.0680000  31.0870000 129.1830000  78.6010000  31.0090000 127.7460000
  49.1530000  55.8050000 136.0570000  48.4900000  56.4070000 136.3940000
  49.8930000  56.3670000 135.8280000  82.0640000  61.7080000 154.3910000
  82.2020000  62.1310000 155.2390000  82.5330000  62.2620000 153.7670000
  36.8770000  47.1650000 135.2880000  37.2810000  46.7020000 134.5540000
  36.0540000  46.7000000 135.4400000  75.0310000  76.7210000 137.9460000
  75.1130000  76.1490000 137.1830000  74.6370000  77.5230000 137.6040000
  82.9630000  84.7890000 129.1390000  83.7940000  84.4050000 129.4170000
  83.1990000  85.6530000 128.7990000  74.7750000  63.2060000 163.9810000
  73.8270000  63.3330000 164.0000000  74.8900000  62.2560000 163.9930000
  60.9830000  70.9770000 143.6480000  60.0370000  70.8600000 143.5630000
  61.2860000  70.1750000 144.0730000  75.6600000  31.0000000 144.3500000
  74.7460000  31.2660000 144.2570000  76.0690000  31.7140000 144.8400000
  38.6320000  34.1840000 140.3670000  38.0990000  34.9110000 140.6880000
  38.4720000  34.1680000 139.4230000  31.0690000  70.0050000 156.6980000
  31.0000000  69.0680000 156.5150000  31.0450000  70.4200000 155.8360000
  40.2670000  66.4790000 130.7650000  39.5650000  66.7900000 130.1940000
  40.3840000  67.1810000 131.4060000  71.8190000  34.2210000 147.5850000
  71.3590000  34.7020000 148.2730000  71.1210000  33.8580000 147.0390000
  77.6360000  33.8900000 143.6980000  77.8210000  32.9610000 143.5650000
  76.6930000  33.9260000 143.8580000  70.8570000  82.5660000 153.8230000
  71.3210000  83.2490000 153.3380000  71.3730000  82.4460000 154.6210000
  37.4700000  50.7740000 157.5550000  38.1840000  51.4110000 157.5610000
  37.9070000  49.9250000 157.4720000  77.3760000  54.9000000 156.9880000
  77.7640000  54.1930000 157.5040000  76.8360000  54.4530000 156.3360000
  42.1770000  63.9260000 142.4370000  41.4200000  64.4020000 142.0960000
  42.3010000  63.2000000 141.8250000  47.0410000  54.8650000 145.6450000
  46.3380000  55.0940000 145.0380000  47.8240000  54.8150000 145.0970000
  47.5710000  86.3940000 161.1370000  47.3440000  85.9480000 160.3220000
  48.4190000  86.8010000 160.9590000  68.0130000  51.8400000 124.6390000
  68.0600000  50.9800000 124.2230000  67.3290000  51.7490000 125.3030000
  88.7230000  80.9910000 131.8440000  89.0000000  80.8760000 132.7520000
  88.9840000  81.8860000 131.6240000  52.9340000  80.3910000 160.9980000
  53.7160000  80.5450000 161.5290000  52.2150000  80.7470000 161.5210000
  84.8730000  80.5970000 153.9560000  84.0480000  80.2600000 153.6070000
  84.7280000  81.5400000 154.0450000  43.0870000  75.7840000 161.5560000
  43.5380000  75.7930000 160.7120000  42.1860000  76.0350000 161.3490000
  62.4170000  75.8440000 144.0800000  62.6590000  75.1060000 144.6390000
  61.7830000  76.3410000 144.5980000  44.1540000  61.5510000 163.9830000
  44.8140000  62.2440000 164.0000000  43.3190000  62.0160000 163.9360000
  38.8750000  67.1340000 137.7220000  39.6040000  67.6420000 137.3650000
  38.6200000  67.6070000 138.5150000  40.7930000  36.8930000 130.9240000
  41.2930000  36.0780000 130.9620000  40.0780000  36.7660000 131.5480000
  33.6260000  49.2100000 127.3430000  33.9150000  49.3770000 126.4460000
  33.6070000  50.0740000 127.7540000  86.1640000  49.3230000 128.2640000
  86.7990000  49.9870000 127.9930000  85.3720000  49.8200000 128.4730000
  50.7450000  78.2120000 160.2510000  49.8790000  77.9170000 159.9700000
  51.0120000  78.8430000 159.5810000  88.4060000  62.0980000 159.0530000
  88.9710000  61.3410000 159.2070000  89.0000000  62.8490000 159.0750000
  74.1860000  67.2030000 144.3350000  73.7960000  67.8190000 143.7160000
  73.4660000  66.9590000 144.9170000  82.5420000  32.0620000 139.7160000
  82.6480000  31.1150000 139.6250000  82.6600000  32.2270000 140.6520000
  55.5840000  84.3820000 130.1190000  55.7260000  84.0410000 129.2360000
  55.5430000  83.6020000 130.6730000  71.1680000  49.3500000 153.3460000
  72.0950000  49.3910000 153.5810000  71.0170000  50.1400000 152.8260000
  31.5490000  50.9200000 136.2330000  31.0000000  50.5120000 136.9020000
  31.0000000  51.6120000 135.8620000  45.3100000  84.3420000 145.4850000
  46.1390000  84.0720000 145.8800000  45.4460000  85.2590000 145.2450000
  50.6800000  48.5640000 142.6460000  49.9340000  47.9710000 142.5620000
  51.4400000  47.9860000 142.7130000  58.4680000  87.0640000 143.6660000
  57.5940000  86.6890000 143.7730000  58.5050000  87.3270000 142.7460000
  80.1940000  46.5090000 150.3400000  79.5820000  47.0990000 150.7780000
  79.6440000  45.8060000 149.9920000  37.6010000  64.4780000 138.4360000
  38.0180000  65.1490000 138.9760000  37.8490000  64.7030000 137.5390000
  40.3880000  82.3000000 143.8050000  39.4950000  82.6180000 143.6700000
  40.9410000  82.9410000 143.3570000  41.8040000  37.4520000 134.4180000
  42.4330000  36.7630000 134.2060000  41.3730000  37.6490000 133.5870000
  83.2320000  61.0930000 143.1730000  83.5700000  60.2110000 143.3280000
  83.6670000  61.3800000 142.3700000  60.3530000  42.2720000 129.5370000
  60.4750000  42.9930000 130.1540000  59.5130000  42.4560000 129.1160000
  35.1490000  44.9670000 141.4690000  34.8240000  44.5790000 140.6570000
  34.7860000  44.4140000 142.1610000  39.9520000  37.2750000 161.6990000
  40.3000000  36.3850000 161.7550000  39.0020000  37.1590000 161.6700000
  44.5290000  44.6360000 153.1010000  45.1450000  44.0960000 153.5940000
  43.7270000  44.1130000 153.0640000  61.2630000  50.7240000 123.5170000
  61.8590000  49.9770000 123.5590000  60.3890000  50.3330000 123.5000000
  64.4050000  66.2240000 150.9950000  63.8340000  66.9130000 151.3350000
  63.9510000  65.4090000 151.2110000  75.8720000  47.6550000 157.4560000
  75.1300000  47.1000000 157.6940000  75.6020000  48.5380000 157.7100000
  40.2720000  48.7070000 154.8090000  40.6470000  47.8470000 154.9990000
  39.4190000  48.6980000 155.2440000  83.2100000  70.3450000 155.3440000
  83.3130000  71.0910000 154.7530000  83.9700000  69.7910000 155.1650000
  73.6340000  46.4190000 123.6110000  73.3200000  47.3230000 123.6020000
  74.5820000  46.4940000 123.5000000  77.6160000  34.0500000 124.1530000
  78.1340000  33.4940000 123.5720000  76.8060000  34.2150000 123.6690000
  35.0640000  46.7890000 161.4860000  34.2080000  46.4140000 161.2840000
  35.6520000  46.0350000 161.5350000  33.9100000  37.6910000 146.3560000
  33.9410000  37.6410000 145.4000000  32.9840000  37.5830000 146.5720000
  76.1930000  83.5010000 134.3030000  75.3210000  83.7860000 134.5770000
  76.7680000  84.2310000 134.5360000  75.4130000  68.5450000 161.4780000
  74.4590000  68.5420000 161.5540000  75.6580000  67.6190000 161.5010000
  49.6550000  43.6150000 140.3770000  50.5690000  43.3750000 140.5260000
  49.6770000  44.1720000 139.5990000  40.4470000  52.6490000 155.4440000
  40.6180000  51.9710000 154.7910000  39.4920000  52.7150000 155.4770000
  77.2040000  51.6320000 163.9980000  77.6500000  50.7850000 163.9960000
  77.9120000  52.2770000 164.0000000  72.6860000  54.9430000 153.8120000
  72.9200000  54.2450000 154.4230000  73.4800000  55.0860000 153.2960000
  81.1510000  75.7530000 157.1000000  81.3580000  76.2620000 157.8840000
  80.9530000  76.4100000 156.4330000  49.2270000  75.3490000 143.4980000
  49.3190000  75.5290000 144.4330000  48.2860000  75.4130000 143.3320000
  40.8290000  63.2270000 127.0720000  40.3580000  63.9530000 127.4800000
  41.5300000  63.0180000 127.6900000  65.5570000  52.9290000 161.6040000
  66.3330000  52.4100000 161.8170000  65.7720000  53.8140000 161.8990000
  38.7270000  57.1150000 131.9730000  38.5540000  56.1970000 132.1820000
  38.3160000  57.2480000 131.1180000  72.9330000  37.7170000 136.6360000
  73.8840000  37.7420000 136.7410000  72.5910000  37.7830000 137.5280000
  76.0380000  31.0000000 129.3920000  75.1280000  31.2960000 129.4040000
  76.5540000  31.8060000 129.4300000  39.1830000  66.3690000 163.9810000
  38.2560000  66.6060000 164.0000000  39.1860000  65.4130000 163.9320000
  36.5730000  46.8190000 149.1070000  37.0240000  47.2380000 149.8390000
  36.2310000  46.0020000 149.4710000  58.9040000  47.8570000 137.5930000
  59.4180000  48.2700000 136.9000000  59.4460000  47.1250000 137.8900000
  35.9620000  56.1670000 135.8770000  35.3700000  56.0780000 136.6230000
  36.7120000  55.6130000 136.0970000  49.5460000  35.3170000 161.2110000
  49.1370000  34.5920000 161.6830000  48.8450000  35.9610000 161.1080000
  86.7220000  87.4010000 140.8590000  87.2210000  87.4840000 141.6710000
  85.8070000  87.3830000 141.1400000  76.0970000  73.6920000 130.9390000
  75.2810000  73.6850000 131.4380000  75.8210000  73.8020000 130.0290000
  67.4810000  38.2590000 149.4110000  66.5370000  38.4050000 149.4600000
  67.8570000  39.1380000 149.3440000  68.8070000  46.4270000 149.1250000
  68.2290000  46.0980000 148.4370000  68.4560000  47.2920000 149.3390000
  82.0140000  38.8590000 144.1170000  81.7670000  38.3870000 144.9120000
  82.1420000  39.7640000 144.4050000  43.3690000  78.8240000 146.1230000
  42.9750000  78.4470000 146.9090000  44.3100000  78.8120000 146.2970000
  75.3170000  77.8550000 160.1800000  76.2220000  77.6940000 159.9150000
  74.9360000  76.9820000 160.2770000  68.0040000  61.8870000 161.5200000
  68.8330000  61.5030000 161.2320000  67.3900000  61.6890000 160.8130000
  39.0560000  81.1430000 149.7550000  38.8780000  82.0790000 149.6700000
  38.8930000  80.7880000 148.8810000  35.2690000  39.9820000 151.7360000
  35.7950000  40.7810000 151.7350000  34.3630000  40.2910000 151.7360000
  73.7400000  33.7060000 151.8260000  73.2970000  33.7390000 150.9790000
  73.1250000  33.2500000 152.4010000  72.5340000  46.8860000 138.9550000
  72.3540000  46.9900000 138.0210000  73.1120000  47.6180000 139.1700000
  31.2080000  85.7750000 158.2820000  31.0230000  85.2660000 159.0710000
  31.0000000  86.6780000 158.5240000  88.6240000  49.0390000 132.7280000
  89.0000000  49.7820000 132.2570000  88.5350000  49.3470000 133.6310000
  45.5350000  84.4200000 164.0000000  45.0510000  83.5940000 164.0000000
  44.8570000  85.0960000 164.0000000  40.6600000  78.4730000 144.8120000
  39.9830000  77.8530000 145.0820000  41.4600000  77.9480000 144.7660000
  72.0890000  62.0460000 151.9550000  71.4780000  61.3160000 152.0520000
  72.1660000  62.4140000 152.8360000  67.4500000  31.8840000 158.1200000
  68.0030000  31.1670000 158.4280000  68.0670000  32.5380000 157.7910000
  81.9200000  75.1120000 133.2160000  81.6080000  74.2070000 133.2220000
  81.1970000  75.6180000 133.5880000  58.9050000  86.2490000 139.4960000
  59.0680000  85.3080000 139.4300000  59.7170000  86.6090000 139.8540000
  37.5710000  47.2620000 153.7830000  36.7010000  47.6600000 153.8230000
  37.9830000  47.6620000 153.0180000  33.4660000  37.8040000 153.2490000
  34.3890000  37.5530000 153.2610000  33.3050000  38.0840000 152.3470000
  68.0260000  80.1980000 151.5080000  68.3710000  80.8980000 152.0610000
  68.7670000  79.9400000 150.9580000  38.9140000  87.6220000 140.0690000
  38.1050000  87.2270000 140.3920000  39.5210000  86.8870000 139.9780000
  73.9300000  49.0340000 151.9020000  73.8490000  49.6390000 151.1660000
  73.8110000  48.1660000 151.5140000  31.4740000  41.3560000 127.0040000
  31.0000000  41.8210000 126.3150000  31.0000000  41.5710000 127.8080000
  87.4090000  74.0260000 150.0750000  87.7750000  74.9020000 150.1950000
  87.4070000  73.6430000 150.9520000  74.9590000  88.5690000 148.8320000
  74.1590000  89.0000000 148.5340000  75.6600000  89.0000000 148.3420000
  63.4190000  36.8350000 157.1500000  62.5640000  36.7790000 156.7240000
  63.2580000  36.5450000 158.0490000  44.5720000  81.8630000 160.5370000
  44.5990000  80.9690000 160.8760000  44.6810000  82.4170000 161.3110000
  38.5410000  48.6150000 136.9610000  38.2070000  47.8350000 137.4040000
  37.7680000  49.1640000 136.8270000  45.6050000  36.1120000 156.4690000
  45.3660000  36.9880000 156.1670000  45.8460000  35.6410000 155.6700000
  59.7850000  56.1040000 152.1340000  60.0450000  56.8800000 151.6380000
  58.9510000  56.3470000 152.5380000  64.9750000  81.5780000 127.1070000
  65.7750000  81.0530000 127.0830000  65.2670000  82.4460000 127.3850000
  73.5800000  88.1250000 128.1270000  74.4900000  87.8350000 128.1900000
  73.6330000  89.0000000 127.7420000  50.1100000  67.7220000 158.4880000
  50.1420000  67.0510000 159.1690000  50.2360000  68.5470000 158.9590000
  34.4370000  69.4830000 152.5300000  34.9390000  68.7200000 152.2460000
  35.0890000  70.1780000 152.6240000  80.7670000  66.6910000 160.0790000
  81.3920000  66.9490000 160.7560000  81.1590000  65.9190000 159.6710000
  79.3410000  38.7700000 157.4860000  80.2160000  38.4320000 157.6790000
  78.8490000  38.0060000 157.1850000  83.8440000  89.0000000 139.2640000
  83.8190000  88.4240000 140.0280000  82.9640000  88.9440000 138.8920000
  80.5660000  65.8650000 153.4090000  80.0870000  65.4150000 154.1050000
  79.9980000  66.5950000 153.1610000  59.5130000  47.7530000 134.4550000
  58.8870000  47.0960000 134.7580000  60.1800000  47.2520000 133.9860000
  88.4660000  31.0000000 133.1140000  87.5850000  31.3650000 133.1900000
  89.0000000  31.5390000 133.6980000  54.5190000  38.7280000 126.1670000
  54.0420000  38.5270000 125.3620000  54.3540000  39.6590000 126.3180000
  31.9030000  74.8130000 150.8520000  31.0000000  74.6380000 150.5860000
  31.8780000  74.7980000 151.8090000  84.3670000  40.9270000 159.9770000
  83.7960000  41.3750000 159.3520000  84.8940000  41.6270000 160.3640000
  42.6530000  72.1750000 158.2740000  42.4670000  72.8130000 158.9630000
  43.2860000  72.6130000 157.7050000  88.3910000  33.4440000 149.6300000
  88.9510000  33.5070000 150.4040000  89.0000000  33.4550000 148.8920000
  88.4490000  41.1380000 151.8780000  89.0000000  41.4320000 151.1530000
  89.0000000  40.5260000 152.3660000  79.2360000  38.5100000 153.0660000
  78.3090000  38.6700000 153.2450000  79.5020000  39.2420000 152.5080000
  33.3700000  78.6340000 130.4740000  33.8100000  78.9830000 129.7000000
  33.6480000  77.7180000 130.5160000  66.4730000  86.1440000 139.1890000
  66.9750000  86.4040000 139.9610000  66.9430000  86.5370000 138.4540000
  77.0080000  80.7860000 134.3080000  77.1270000  79.8690000 134.5510000
  76.1740000  81.0350000 134.7080000  31.0180000  74.6990000 128.0070000
  31.0000000  74.7260000 127.0510000  31.0230000  75.6190000 128.2730000
  78.0580000  85.3810000 124.0290000  78.8370000  85.5500000 123.5000000
  78.3130000  84.6620000 124.6080000  64.2620000  45.9850000 138.3020000
  64.3030000  46.9200000 138.5020000  63.4650000  45.8860000 137.7800000
  68.5320000  31.1070000 163.4260000  68.5510000  31.8720000 164.0000000
  67.6070000  31.0000000 163.2000000  88.9790000  72.4520000 143.7370000
  89.0000000  73.0290000 142.9740000  88.3520000  71.7680000 143.5040000
  50.5660000  85.9120000 130.2010000  50.6680000  85.9580000 129.2510000
  50.5200000  86.8260000 130.4820000  39.6460000  50.0800000 150.2790000
  40.0110000  50.9460000 150.4580000  39.7310000  49.9740000 149.3310000
  71.6910000  77.3980000 156.3180000  72.0650000  77.8220000 157.0900000
  71.9200000  76.4740000 156.4160000  60.7170000  72.3640000 151.0200000
  59.9910000  72.1390000 151.6020000  60.7930000  71.6130000 150.4310000
  72.1550000  65.1050000 161.2850000  72.7780000  65.4710000 160.6570000
  72.6090000  64.3510000 161.6610000  42.7710000  60.7980000 161.8010000
  42.9630000  59.8640000 161.7190000  43.0320000  61.1710000 160.9580000
  71.7580000  80.0190000 163.9800000  71.4800000  79.1030000 163.9750000
  72.7150000  79.9800000 164.0000000  43.8990000  69.5770000 133.9990000
  44.7700000  69.8170000 133.6840000  43.5120000  70.4040000 134.2890000
  50.8760000  69.3320000 142.5320000  50.4350000  69.8460000 143.2090000
  50.3400000  69.4570000 141.7490000  83.4680000  53.5390000 159.2710000
  83.2490000  54.4550000 159.4390000  82.8000000  53.0410000 159.7430000
  68.1230000  76.3280000 148.7720000  67.6360000  76.1760000 147.9620000
  68.1930000  75.4620000 149.1760000  34.6280000  85.6420000 135.7840000
  34.3460000  86.5560000 135.7760000  33.8160000  85.1410000 135.8630000
  32.8130000  47.3120000 134.9130000  32.1170000  46.7020000 134.6690000
  33.6010000  46.7700000 134.9640000  64.3930000  84.4300000 134.2230000
  63.8530000  84.4350000 133.4320000  64.8460000  85.2730000 134.2090000
  56.6850000  45.6500000 163.9410000  56.8290000  44.7040000 163.9350000
  57.5630000  46.0270000 164.0000000  72.5510000  46.1930000 157.4570000
  72.2840000  46.0750000 156.5460000  71.7360000  46.1350000 157.9550000
  74.9720000  66.9160000 131.8830000  75.6110000  67.4960000 131.4700000
  74.2940000  67.5040000 132.2170000  35.2900000  58.1070000 154.4420000
  35.1780000  58.5470000 153.6000000  35.6670000  58.7760000 155.0140000
  51.3010000  63.7370000 157.1620000  50.5710000  64.3540000 157.2150000
  50.8850000  62.8790000 157.0750000  43.0850000  52.0770000 126.4810000
  42.1450000  51.8990000 126.4700000  43.3490000  52.0330000 125.5620000
  54.3150000  66.1260000 146.4730000  54.0010000  66.9230000 146.8980000
  55.0200000  65.8130000 147.0390000  33.4950000  34.9780000 140.6270000
  33.5350000  34.1280000 140.1890000  33.8810000  35.5900000 140.0000000
  74.2810000  49.8510000 123.5000000  73.9930000  50.7590000 123.5890000
  75.2240000  49.8810000 123.6630000  39.2900000  42.7900000 151.9940000
  40.1530000  42.7880000 151.5820000  38.9080000  41.9450000 151.7550000
  43.2540000  57.8920000 147.8800000  43.6610000  58.7520000 147.7740000
  43.5730000  57.5780000 148.7260000  63.8030000  58.0280000 132.0390000
  64.5820000  58.2550000 132.5470000  64.0940000  57.3290000 131.4540000
  71.3980000  31.3810000 157.6820000  72.1910000  31.0320000 158.0890000
  70.9380000  31.8240000 158.3950000  88.8960000  88.9340000 138.6040000
  88.9980000  88.9940000 137.6550000  88.9810000  88.0000000 138.7970000
  31.5770000  65.3260000 141.1040000  31.0000000  65.9240000 140.6300000
  31.0000000  64.6240000 141.4050000  89.0000000  62.9510000 141.8680000
  88.1340000  63.0890000 142.2510000  88.8270000  62.5120000 141.0350000
  87.1840000  75.6370000 123.6650000  86.7200000  75.9540000 124.4400000
  86.8120000  74.7710000 123.5000000  40.6340000  58.4340000 146.7930000
  41.1560000  57.6750000 146.5370000  41.2750000  59.1310000 146.9310000
  76.9250000  49.6110000 127.9970000  76.5520000  50.0200000 128.7780000
  76.1670000  49.3790000 127.4610000  66.2250000  62.1950000 163.9090000
  66.5390000  61.2940000 163.9920000  67.0220000  62.7250000 163.8880000
  69.1150000  48.5670000 151.3860000  69.0880000  49.5230000 151.3600000
  70.0470000  48.3520000 151.3460000  31.3330000  52.8220000 157.5770000
  31.0000000  52.9330000 156.6870000  31.0000000  51.9670000 157.8520000
  59.4170000  71.7410000 135.7000000  59.2620000  71.0110000 136.3000000
  58.9640000  72.4820000 136.1030000  39.1440000  39.9800000 132.1810000
  39.8010000  40.5620000 131.8000000  39.6440000  39.2230000 132.4880000
  33.5310000  65.1830000 131.5080000  34.0730000  64.5150000 131.0880000
  33.7500000  65.9930000 131.0460000  40.9550000  33.4130000 137.8900000
  41.7280000  32.8550000 137.8080000  40.3110000  32.8660000 138.3390000
  79.5590000  84.8300000 127.0520000  80.1520000  85.4770000 126.6700000
  80.1230000  84.2770000 127.5920000  85.1090000  39.5460000 129.1680000
  85.1950000  39.6290000 130.1180000  84.8660000  40.4230000 128.8720000
  61.8290000  61.5410000 145.3260000  61.1770000  62.2410000 145.3560000
  62.6690000  61.9970000 145.2820000  63.2320000  70.7790000 148.2330000
  63.0620000  71.6680000 148.5440000  62.3690000  70.4380000 147.9980000
  88.0560000  63.5560000 153.1920000  89.0000000  63.5130000 153.0410000
  87.9140000  63.0270000 153.9780000  72.8070000  38.2960000 145.8620000
  71.9400000  38.6700000 146.0160000  73.1890000  38.2070000 146.7360000
  50.0250000  37.7460000 162.4740000  50.1210000  38.5910000 162.0350000
  50.7960000  37.2470000 162.2050000  82.5130000  50.6250000 128.6330000
  82.8700000  49.8940000 128.1300000  83.1470000  50.7660000 129.3360000
  79.9340000  56.2370000 153.8190000  80.2430000  55.4110000 154.1890000
  80.5360000  56.8960000 154.1650000  76.7760000  46.6920000 147.5540000
  77.6750000  47.0180000 147.5960000  76.8700000  45.7480000 147.4190000
  34.5540000  41.7840000 128.6570000  33.8440000  41.1420000 128.6350000
  35.3530000  41.2580000 128.6130000  49.3270000  41.3130000 163.0630000
  50.1960000  41.1160000 162.7150000  48.9240000  40.4560000 163.2010000
  47.5460000  42.5760000 139.4230000  47.7640000  42.4410000 138.5010000
  47.1670000  43.4550000 139.4540000  48.0610000  83.4870000 143.9330000
  48.1910000  82.5750000 144.1930000  48.9150000  83.7640000 143.5990000
  50.3200000  44.7040000 159.1570000  50.5170000  43.9130000 159.6580000
  51.1660000  44.9860000 158.8100000  58.2790000  39.7220000 157.2320000
  58.3460000  39.9590000 158.1560000  57.5410000  39.1130000 157.1930000
  67.3180000  35.4420000 124.3490000  68.0810000  35.9000000 124.7020000
  67.1610000  35.8560000 123.5000000  63.5910000  52.4430000 155.6910000
  63.8740000  52.2650000 156.5880000  64.2960000  52.0980000 155.1430000
  83.1390000  32.0330000 133.3030000  83.7440000  32.6560000 132.9020000
  82.7910000  31.5280000 132.5670000  77.8880000  69.9920000 163.2610000
  77.3820000  69.3150000 162.8120000  77.3360000  70.2540000 163.9980000
  46.1220000  40.0250000 151.2350000  46.9760000  39.5960000 151.2880000
  45.5040000  39.3090000 151.0820000  43.6140000  65.2830000 140.5440000
  43.1510000  64.7670000 139.8840000  44.5080000  64.9390000 140.5330000
  71.2220000  85.4590000 123.5000000  70.8870000  84.5650000 123.5670000
  72.1750000  85.3600000 123.5130000  44.5820000  42.9550000 160.6170000
  44.6200000  42.3110000 161.3240000  45.4570000  43.3430000 160.5990000
  31.3080000  32.3560000 160.9880000  31.9890000  33.0290000 160.9820000
  31.7890000  31.5280000 160.9910000  84.6840000  55.4680000 125.7870000
  85.6300000  55.6110000 125.7620000  84.5870000  54.5160000 125.8190000
  82.3140000  55.9100000 135.1120000  82.3490000  56.4660000 134.3340000
  83.1720000  55.4860000 135.1440000  87.1290000  34.3730000 138.8630000
  86.6750000  34.3860000 138.0200000  87.5710000  33.5230000 138.8840000
  71.9150000  81.6650000 160.8870000  72.1450000  81.0800000 161.6090000
  72.5810000  81.4960000 160.2200000  66.0160000  54.2190000 146.7860000
  66.9410000  54.1760000 146.5470000  65.8290000  55.1560000 146.8530000
  75.5320000  56.0880000 148.1180000  75.4580000  55.7040000 147.2440000
  76.1780000  56.7880000 148.0180000  42.6840000  79.8900000 143.7760000
  41.8390000  80.2510000 143.5090000  43.0700000  80.5670000 144.3320000
  73.4470000  31.0000000 131.2310000  73.6200000  31.8870000 131.5460000
  72.5450000  31.0290000 130.9130000  39.5810000  41.3790000 149.4120000
  40.3690000  41.0460000 148.9840000  39.0920000  40.5930000 149.6600000
  34.9440000  61.1980000 161.5120000  35.6850000  60.5920000 161.5100000
  35.3410000  62.0620000 161.3980000  55.0280000  31.0000000 154.3940000
  55.2350000  31.0440000 155.3280000  55.8770000  31.0600000 153.9570000
  37.0940000  74.6400000 161.0900000  36.2520000  74.1860000 161.0890000
  37.7450000  73.9380000 161.0900000  88.0590000  74.8810000 146.8990000
  89.0000000  74.9060000 146.7250000  87.6990000  74.3390000 146.1970000
  64.8190000  73.8570000 158.2730000  65.3110000  74.5200000 157.7890000
  63.9160000  74.1760000 158.2680000  75.4390000  60.9320000 158.8180000
  75.6630000  60.0110000 158.6880000  74.4900000  60.9330000 158.9420000
  88.4140000  83.8820000 163.9820000  89.0000000  84.6390000 164.0000000
  89.0000000  83.1250000 163.9790000  65.4300000  70.6910000 146.5360000
  66.0530000  70.2300000 145.9750000  65.7220000  71.6030000 146.5200000
  57.3010000  45.9410000 138.4470000  56.9240000  46.7750000 138.7280000
  57.2590000  45.9680000 137.4910000  47.0300000  60.6230000 162.4910000
  47.9260000  60.4860000 162.1830000  47.1210000  61.2180000 163.2360000
  32.9900000  56.7240000 153.7880000  33.4260000  56.0650000 154.3270000
  32.6520000  57.3630000 154.4150000  39.6460000  55.7460000 124.7740000
  39.6180000  55.5100000 123.8470000  39.1370000  55.0630000 125.2110000
  53.2180000  86.5020000 156.7380000  54.1200000  86.6980000 156.9890000
  53.1220000  85.5630000 156.8990000  81.1360000  71.2750000 156.9670000
  80.5460000  71.3690000 157.7140000  81.0380000  70.3620000 156.6960000
  54.2900000  42.4180000 163.5380000  55.2370000  42.5410000 163.4680000
  53.9510000  42.6750000 162.6800000  35.6730000  67.6540000 161.9720000
  36.1390000  68.0070000 161.2140000  36.3570000  67.2520000 162.5080000
  36.6240000  56.1510000 142.7960000  37.1800000  56.9220000 142.9070000
  35.9820000  56.4110000 142.1340000  35.6480000  79.0030000 140.3570000
  35.3870000  78.0920000 140.2250000  36.1940000  78.9860000 141.1430000
  62.1300000  65.7380000 153.2430000  61.2390000  66.0890000 153.2370000
  62.0130000  64.7880000 153.2580000  38.2930000  41.5410000 154.1440000
  37.3930000  41.8260000 153.9870000  38.2610000  40.5880000 154.0580000
  35.9950000  65.6090000 144.0630000  35.8550000  65.7730000 144.9960000
  35.5490000  64.7790000 143.8960000  49.5990000  67.6620000 133.0060000
  48.9180000  66.9970000 133.1060000  49.9540000  67.7760000 133.8880000
  72.4810000  74.1930000 143.1780000  73.1880000  74.0510000 143.8080000
  71.8190000  74.6840000 143.6660000  78.0090000  31.2020000 135.5600000
  78.8030000  31.0000000 136.0550000  77.9390000  32.1560000 135.5990000
  48.7120000  71.5360000 148.3620000  49.4080000  71.1700000 147.8160000
  49.0930000  71.5770000 149.2400000  86.9180000  51.0420000 159.7160000
  87.1250000  50.4370000 159.0040000  86.7770000  50.4780000 160.4770000
  85.4410000  34.9300000 123.5000000  86.3930000  34.8420000 123.5280000
  85.1670000  34.8620000 124.4150000  73.3400000  47.4460000 147.8300000
  73.6530000  48.2910000 148.1510000  73.8720000  47.2720000 147.0530000
  89.0000000  31.9500000 163.0510000  88.9960000  32.0740000 164.0000000
  88.9960000  31.0000000 162.9330000  33.8260000  84.2090000 139.5600000
  33.3960000  83.3690000 139.7190000  33.1540000  84.7470000 139.1410000
  86.0580000  70.1260000 163.4040000  85.7220000  70.5310000 162.6050000
  86.2080000  70.8610000 164.0000000  45.0070000  79.9490000 133.7970000
  44.7400000  79.0350000 133.7040000  45.5620000  80.1150000 133.0340000
  56.6150000  86.4520000 132.1960000  57.1410000  86.7610000 132.9330000
  56.6610000  85.4980000 132.2510000  61.7410000  76.8740000 154.1400000
  61.8980000  76.9110000 153.1960000  61.9860000  77.7430000 154.4580000
  56.7150000  52.6210000 161.7230000  56.1690000  53.1480000 162.3060000
  57.6010000  52.7130000 162.0760000  51.9280000  89.0000000 132.6150000
  52.3120000  88.7890000 133.4660000  51.7360000  88.1490000 132.2210000
  53.4300000  52.6890000 161.5900000  54.1420000  52.5260000 160.9720000
  52.6510000  52.7780000 161.0410000  64.5940000  65.0950000 156.4830000
  65.3930000  64.5680000 156.4840000  64.6720000  65.6460000 155.7040000
  55.2670000  76.3860000 137.2330000  54.7390000  75.5980000 137.3610000
  56.1490000  76.0570000 137.0550000  61.6140000  65.3400000 140.5270000
  61.5880000  65.9400000 139.7820000  62.5300000  65.0650000 140.5820000
  62.0890000  58.0420000 155.9400000  62.7990000  58.5990000 155.6210000
  61.3780000  58.6500000 156.1420000  50.1730000  83.0690000 164.0000000
  50.5680000  83.9380000 163.9380000  50.9140000  82.4640000 163.9550000
  39.8510000  71.7650000 154.5600000  38.9380000  71.5060000 154.4380000
  39.9070000  72.6360000 154.1670000  35.3280000  57.9760000 123.5100000
  34.4520000  58.3630000 123.5000000  35.9220000  58.7280000 123.5200000
  49.2260000  57.1350000 151.1480000  49.5890000  57.9990000 150.9530000
  49.6920000  56.5400000 150.5610000  33.3750000  35.9820000 163.9910000
  34.3220000  36.1210000 164.0000000  33.2730000  35.0300000 163.9810000
  40.9050000  61.0320000 150.7450000  40.4730000  61.7580000 150.2950000
  40.4530000  60.9690000 151.5870000  52.0420000  47.1960000 127.9700000
  52.6500000  47.0760000 127.2410000  51.2140000  46.8320000 127.6550000
  84.2140000  81.0720000 128.2940000  84.1440000  81.9750000 127.9850000
  83.9590000  81.1140000 129.2160000  77.0530000  41.8560000 159.0160000
  77.1330000  41.1160000 159.6170000  76.9700000  42.6200000 159.5860000
  73.6030000  70.7660000 148.6500000  73.7450000  70.3750000 149.5120000
  72.7890000  70.3700000 148.3390000  61.7830000  80.1270000 131.8770000
  61.3690000  80.9900000 131.8850000  61.0520000  79.5100000 131.8370000
  77.6990000  67.6030000 139.4500000  77.8450000  67.8080000 140.3740000
  76.8520000  67.1560000 139.4350000  69.5610000  77.8380000 126.2760000
  69.2480000  78.7130000 126.5040000  68.8020000  77.2700000 126.4090000
  33.9300000  46.8490000 129.1950000  33.2540000  46.7460000 128.5250000
  33.5020000  47.3410000 129.8950000  72.8020000  40.8110000 124.0310000
  72.4900000  40.0580000 123.5310000  72.5590000  41.5700000 123.5000000
  34.4730000  63.3770000 133.5040000  34.1250000  62.7030000 132.9200000
  34.9140000  62.8890000 134.1990000  33.9630000  41.7940000 124.6620000
  33.4200000  41.0060000 124.6630000  33.3350000  42.5170000 124.6300000
  36.1600000  61.2820000 142.5840000  37.0980000  61.1950000 142.7520000
  36.1050000  61.5840000 141.6770000  35.9690000  37.6390000 135.4300000
  35.5750000  36.8640000 135.0290000  36.3830000  37.3120000 136.2290000
  58.0340000  88.4310000 138.6410000  57.2680000  89.0000000 138.5650000
  58.7220000  89.0000000 138.9890000  86.2490000  70.6460000 154.5950000
  86.5800000  70.3110000 153.7620000  86.2800000  71.5980000 154.4990000
  74.0800000  35.7430000 132.6340000  74.1030000  36.6140000 132.2380000
  73.7810000  35.1670000 131.9300000  58.6610000  31.2710000 128.0390000
  57.8520000  31.0000000 128.4710000  58.5500000  31.0000000 127.1270000
  33.5380000  35.4980000 159.3810000  34.4200000  35.8690000 159.3710000
  32.9570000  36.2590000 159.3940000  52.3310000  38.6560000 158.7470000
  53.0080000  39.3270000 158.8290000  51.6680000  39.0520000 158.1810000
  78.6600000  81.1650000 123.6820000  78.1060000  81.9420000 123.7510000
  78.0470000  80.4460000 123.5240000  86.4300000  33.8230000 155.6250000
  86.7540000  33.2550000 156.3240000  86.9120000  33.5440000 154.8460000
  74.0690000  49.4790000 140.5680000  73.5780000  49.0970000 141.2950000
  73.7990000  50.3970000 140.5530000  33.3330000  71.0900000 139.2970000
  33.4570000  71.5600000 140.1210000  33.5710000  71.7240000 138.6210000
  51.4660000  88.1930000 157.8620000  51.0630000  88.9940000 157.5280000
  51.0140000  87.4860000 157.4000000  49.2030000  72.4500000 158.4110000
  48.9080000  72.0930000 159.2480000  49.7450000  71.7570000 158.0330000
  89.0000000  86.3430000 136.1900000  88.5620000  85.8590000 135.4900000
  88.3290000  86.4510000 136.8640000  62.2600000  46.2320000 131.1640000
  62.4330000  45.4010000 130.7220000  61.5510000  46.0360000 131.7770000
  47.9520000  56.6290000 142.3300000  47.5260000  56.4680000 143.1720000
  48.3620000  55.7930000 142.1050000  74.0540000  58.2380000 133.4400000
  74.4430000  57.4110000 133.7250000  73.3460000  57.9800000 132.8500000
  33.3620000  35.2710000 152.5770000  33.4480000  35.2130000 153.5280000
  34.2630000  35.2680000 152.2530000  77.4970000  76.3760000 125.7170000
  76.6520000  75.9460000 125.5860000  78.1120000  75.8610000 125.1940000
  58.5190000  60.4240000 137.6100000  58.4890000  60.1910000 138.5380000
  59.0300000  61.2330000 137.5820000  81.1550000  34.1510000 154.6470000
  80.3710000  34.6980000 154.6860000  80.9420000  33.4710000 154.0070000
  60.0000000  60.0000000 110.0000000  90.0000000  90.0000000  90.0000000
